file 3975222 1742232162                                         
version 3
run Sched1-0-20250317-19:22:22-17676
attr configname Sched1
attr datetime 20250317-19:22:22
attr datetimef 20250317-192222
attr experiment Sched1
attr inifile omnetpp.ini
attr iterationvars ""
attr iterationvarsd ""
attr iterationvarsf ""
attr measurement ""
attr network RadioSch2
attr processid 17676
attr repetition 0
attr replication #0
attr resultdir results
attr runnumber 0
attr seedset 0
config description "low job arrival rate"
config *.scalar-recording true
config *.vector-recording true
config **.user[*].generator.sendIaTime "0.2 ms"
config *.user[*].generator.networkLoad 0.8
config *.user[*].generator.packetsPerUser 4
config *.user[*].generator.channels 14
config *.user[*].generator.usersCount 7
config *.user[*].generator.MAX_Sim "10 s"
config *.usersCount 7
config network RadioSch2
config sim-time-limit 100h
config cpu-time-limit 300s
config simtime-resolution ns
config record-eventlog true

vector 0 RadioSch2.sink lifetime_user0:vector ETV
attr interpolationmode none
attr recordingmode vector
attr title "User 0 Packet Lifetime"
attr unit s
vector 1 RadioSch2.sink lifetime_user1:vector ETV
attr interpolationmode none
attr recordingmode vector
attr title "User 1 Packet Lifetime"
attr unit s
vector 2 RadioSch2.sink lifetime_user2:vector ETV
attr interpolationmode none
attr recordingmode vector
attr title "User 2 Packet Lifetime"
attr unit s
vector 3 RadioSch2.sink lifetime_user3:vector ETV
attr interpolationmode none
attr recordingmode vector
attr title "User 3 Packet Lifetime"
attr unit s
vector 4 RadioSch2.sink lifetime_user4:vector ETV
attr interpolationmode none
attr recordingmode vector
attr title "User 4 Packet Lifetime"
attr unit s
vector 5 RadioSch2.sink lifetime_user5:vector ETV
attr interpolationmode none
attr recordingmode vector
attr title "User 5 Packet Lifetime"
attr unit s
vector 6 RadioSch2.sink lifetime_user6:vector ETV
attr interpolationmode none
attr recordingmode vector
attr title "User 6 Packet Lifetime"
attr unit s
vector 7 RadioSch2.flc "delay vector" ETV
vector 8 RadioSch2.flc "result nescalat" ETV
vector 9 RadioSch2.flc "res scalat" ETV
vector 10 RadioSch2.flc "weight vector" ETV
0	2233 433818 95 499573 1 10000 16120 0.010324036 40.501477412 151400.00475768 2402667.4852479
1	436051 447520 97 499576 1 10000 16484 0.004688831 80.554256441 308360.69476688 10902559.613067
2	883571 420569 99 499579 1 10000 15777 0.000186434 25.285508273 70932.779244486 586574.12335464
3	1304140 427534 102 499582 1 10000 15980 0.002628523 32.067052783 97490.991829228 1111467.2022704
4	1731674 434272 104 499504 1 9999 16224 0.003865952 32.868263392 105186.89340368 1143582.0680721
5	2165946 432425 106 499586 1 10000 16278 0.000271401 5.202119055 11389.631435542 13291.412884098
6	2598371 431068 111 499234 1 9994 16240 1.1636e-05 5.069121856 11465.308461 13311.283832018
7	3029439 405737 10 499571 0 10000 20002 -26838 1500 -66307299 496178298665
8	3435176 176681 10 499571 0 10000 10001 53 64 639668 40917092
9	3611857 176681 10 499571 0 10000 10001 11 15 149884 2246724
10	3788538 186682 10 499571 0 10000 10001 25 29 290025 8410625

