version 3
run Sched1-0-20250309-15:19:05-13300
attr configname Sched1
attr datetime 20250309-15:19:05
attr datetimef 20250309-151905
attr experiment Sched1
attr inifile omnetpp.ini
attr iterationvars ""
attr iterationvarsd ""
attr iterationvarsf ""
attr measurement ""
attr network RadioSch2
attr processid 13300
attr repetition 0
attr replication #0
attr resultdir results
attr runnumber 0
attr seedset 0
config description "low job arrival rate"
config *.scalar-recording true
config *.vector-recording true
config **.user[*].generator.sendIaTime "0.2 ms"
config *.user[*].generator.networkLoad 0.8
config *.user[*].generator.packetsPerUser 4
config *.user[*].generator.channels 14
config *.user[*].generator.usersCount 7
config *.user[*].generator.MAX_Sim "10 s"
config *.usersCount 7
config network RadioSch2
config sim-time-limit 100h
config cpu-time-limit 300s
config simtime-resolution ns
config record-eventlog true

vector 0 RadioSch2.sink lifetime_user0:vector ETV
attr interpolationmode none
attr recordingmode vector
attr title "User 0 Packet Lifetime"
attr unit s
vector 1 RadioSch2.sink lifetime_user1:vector ETV
attr interpolationmode none
attr recordingmode vector
attr title "User 1 Packet Lifetime"
attr unit s
vector 2 RadioSch2.sink lifetime_user2:vector ETV
attr interpolationmode none
attr recordingmode vector
attr title "User 2 Packet Lifetime"
attr unit s
vector 3 RadioSch2.sink lifetime_user3:vector ETV
attr interpolationmode none
attr recordingmode vector
attr title "User 3 Packet Lifetime"
attr unit s
vector 4 RadioSch2.sink lifetime_user4:vector ETV
attr interpolationmode none
attr recordingmode vector
attr title "User 4 Packet Lifetime"
attr unit s
vector 5 RadioSch2.sink lifetime_user5:vector ETV
attr interpolationmode none
attr recordingmode vector
attr title "User 5 Packet Lifetime"
attr unit s
vector 6 RadioSch2.sink lifetime_user6:vector ETV
attr interpolationmode none
attr recordingmode vector
attr title "User 6 Packet Lifetime"
attr unit s
vector 7 RadioSch2.flc "delay vector" ETV
vector 8 RadioSch2.flc "result nescalat" ETV
vector 9 RadioSch2.flc "res scalat" ETV
vector 10 RadioSch2.flc "weight vector" ETV
7	10	0	1100
7	10	0	1500
8	10	0	32
9	10	0	0
10	10	0	10
0	95	1	1
0	162	2	2
0	210	3	3
0	211	3	3
0	376	6	0.441188945
0	377	6	0.441188945
0	378	6	0.441188945
0	379	6	0.441188945
0	439	7	1.035847721
0	440	7	1.035847721
0	482	8	2.035847721
0	483	8	2.035847721
0	552	9	2.407242891
0	553	9	2.407242891
0	610	10	3.407242891
0	611	10	3.407242891
0	751	13	0.591365237
0	752	13	0.591365237
0	753	13	0.591365237
0	754	13	0.591365237
0	857	15	0.809906254
0	858	15	0.809906254
0	859	15	0.809906254
0	902	16	1.809906254
0	1092	20	0.499313261
0	1093	20	0.499313261
0	1094	20	0.499313261
0	1095	20	0.499313261
0	1158	21	0.238453745
0	1159	21	0.238453745
0	1215	22	1.238453745
0	1216	22	1.238453745
0	1262	23	0.747505259
0	1263	23	0.747505259
0	1299	24	1.747505259
0	1300	24	1.747505259
0	1347	25	0.052918049
0	1348	25	0.052918049
0	1405	26	1.052918049
0	1406	26	1.052918049
0	1520	28	0.64698041
0	1521	28	0.64698041
0	1566	29	1.64698041
0	1567	29	1.64698041
0	1653	31	0.604431672
0	1654	31	0.604431672
0	1690	32	1.604431672
0	1691	32	1.604431672
0	2109	41	0.479814575
0	2110	41	0.479814575
0	2111	41	0.479814575
0	2112	41	0.479814575
0	2210	43	0.851737745
0	2211	43	0.851737745
0	2212	43	0.851737745
0	2275	44	1.851737745
0	2492	49	0.982128341
0	2493	49	0.982128341
0	2494	49	0.982128341
0	2495	49	0.982128341
0	2553	50	0.721428508
0	2554	50	0.721428508
0	2595	51	1.721428508
0	2596	51	1.721428508
0	2656	53	0.520367623
0	2657	53	0.520367623
0	2705	54	1.520367623
0	2706	54	1.520367623
0	2841	57	0.675795837
0	2842	57	0.675795837
0	2884	58	1.675795837
0	2885	58	1.675795837
0	2916	59	2.642482725
0	2917	59	2.642482725
0	2941	60	3.642482725
0	2942	60	3.642482725
0	3213	66	0.493339398
0	3214	66	0.493339398
0	3215	66	0.493339398
0	3216	66	0.493339398
0	3330	69	0.618985929
0	3331	69	0.618985929
0	3405	70	1.618985929
0	3471	71	2.618985929
0	3615	74	0.053775955
0	3616	74	0.053775955
0	3617	74	0.053775955
0	3618	74	0.053775955
0	3938	80	0.812185271
0	3939	80	0.812185271
0	3940	80	0.812185271
0	3941	80	0.812185271
0	4002	81	0.714492807
0	4003	81	0.714492807
0	4042	82	1.714492807
0	4043	82	1.714492807
0	4146	84	0.863795615
0	4147	84	0.863795615
0	4148	84	0.863795615
0	4235	85	1.863795615
0	4300	86	1.683875396
0	4301	86	1.683875396
0	4345	87	2.683875396
0	4346	87	2.683875396
0	4379	88	3.567038142
0	4380	88	3.567038142
0	4430	89	4.567038142
0	4431	89	4.567038142
0	4487	90	4.63913384
0	4488	90	4.63913384
0	4542	91	5.63913384
0	4543	91	5.63913384
0	4593	92	5.788540791
0	4594	92	5.788540791
0	4631	93	6.788540791
0	4632	93	6.788540791
0	4655	94	5.967596858
0	4656	94	5.967596858
0	4683	95	6.967596858
0	4684	95	6.967596858
0	4739	96	6.700788823
0	4740	96	6.700788823
0	4773	97	7.700788823
0	4774	97	7.700788823
0	4815	98	2.817451903
0	4816	98	2.817451903
0	4893	99	3.817451903
0	4894	99	3.817451903
0	4946	100	4.755131664
0	4947	100	4.755131664
0	5004	101	5.755131664
0	5005	101	5.755131664
0	5076	102	3.748738302
0	5077	102	3.748738302
0	5120	103	4.748738302
0	5121	103	4.748738302
0	5147	104	3.769715565
0	5148	104	3.769715565
0	5176	105	4.769715565
0	5177	105	4.769715565
0	5218	106	4.602554706
0	5219	106	4.602554706
0	5283	107	5.602554706
0	5284	107	5.602554706
0	5362	108	6.141015024
0	5363	108	6.141015024
0	5424	109	7.141015024
0	5425	109	7.141015024
0	5472	110	2.347199868
0	5473	110	2.347199868
0	5474	110	2.347199868
0	5545	111	3.347199868
0	5546	111	3.085419184
0	5578	112	4.085419184
0	5579	112	4.085419184
0	5580	112	4.085419184
0	5644	113	2.114596283
0	5645	113	2.114596283
0	5680	114	3.114596283
0	5681	114	3.114596283
0	6076	123	0.298608291
0	6077	123	0.298608291
0	6078	123	0.298608291
0	6079	123	0.298608291
0	6152	125	0.881853391
0	6153	125	0.881853391
0	6154	125	0.881853391
0	6185	126	1.881853391
0	6296	129	0.570873677
0	6297	129	0.570873677
0	6298	129	0.570873677
0	6299	129	0.570873677
0	6425	133	0.862940157
0	6426	133	0.862940157
0	6427	133	0.862940157
0	6428	133	0.862940157
0	6488	134	0.657992133
0	6489	134	0.657992133
0	6558	135	1.657992133
0	6559	135	1.657992133
0	6606	136	1.024358984
0	6607	136	1.024358984
0	6676	137	2.024358984
0	6677	137	2.024358984
0	6710	138	1.731441666
0	6711	138	1.731441666
0	6785	139	2.731441666
0	6786	139	2.731441666
0	6883	141	0.410793234
0	6884	141	0.410793234
0	6885	141	0.410793234
0	6886	141	0.410793234
0	7013	143	0.55398386
0	7014	143	0.55398386
0	7015	143	0.55398386
0	7016	143	0.55398386
0	7084	144	0.751489715
0	7085	144	0.751489715
0	7134	145	1.751489715
0	7135	145	1.751489715
0	7180	146	2.609780012
0	7181	146	2.609780012
0	7250	147	3.609780012
0	7251	147	3.609780012
0	7288	148	2.55913253
0	7289	148	2.55913253
0	7290	148	2.55913253
0	7331	149	3.55913253
0	7472	152	0.008628588
0	7473	152	0.008628588
0	7474	152	0.008628588
0	7505	153	1.008628588
0	7662	157	0.483351059
0	7663	157	0.483351059
0	7664	157	0.483351059
0	7710	158	1.483351059
0	7881	161	0.775952648
0	7882	161	0.775952648
0	7883	161	0.775952648
0	7884	161	0.775952648
0	7951	163	0.507420348
0	7952	163	0.507420348
0	7982	164	1.507420348
0	7983	164	1.507420348
0	8288	170	0.950356543
0	8289	170	0.950356543
0	8290	170	0.950356543
0	8291	170	0.950356543
0	8526	176	0.79161997
0	8527	176	0.79161997
0	8528	176	0.79161997
0	8529	176	0.79161997
0	8609	177	0.754228513
0	8610	177	0.754228513
0	8646	178	1.754228513
0	8647	178	1.754228513
0	8707	179	0.21494683
0	8708	179	0.21494683
0	8731	180	1.21494683
0	8732	180	1.21494683
0	8758	181	2.097182236
0	8759	181	2.097182236
0	8803	182	3.097182236
0	8867	183	4.097182236
0	8868	183	0.846459381
0	8901	184	1.846459381
0	8902	184	1.846459381
0	8963	185	2.846459381
0	9126	189	0.101251774
0	9127	189	0.101251774
0	9128	189	0.101251774
0	9129	189	0.101251774
0	9327	193	0.812745543
0	9328	193	0.812745543
0	9329	193	0.812745543
0	9330	193	0.812745543
0	9367	194	0.882041085
0	9368	194	0.882041085
0	9406	195	1.882041085
0	9407	195	1.882041085
0	9480	196	2.26836738
0	9481	196	2.26836738
0	9534	197	3.26836738
0	9535	197	3.26836738
0	9580	198	3.308188451
0	9581	198	3.308188451
0	9658	199	4.308188451
0	9659	199	4.308188451
0	9660	199	3.2484576
0	9715	200	4.2484576
0	9716	200	4.2484576
0	9758	201	5.2484576
0	9759	201	2.810384994
0	9782	202	3.810384994
0	9783	202	3.810384994
0	9867	203	4.810384994
0	9868	203	4.26107563
0	9909	204	5.26107563
0	9910	204	5.26107563
0	9997	205	6.26107563
0	9998	205	5.403976315
0	10088	206	6.403976315
0	10134	207	7.403976315
0	10135	207	7.403976315
0	10136	207	7.037486834
0	10158	208	8.037486834
0	10159	208	8.037486834
0	10207	209	9.037486834
0	10208	209	6.989725476
0	10270	210	7.989725476
0	10271	210	7.989725476
0	10339	211	8.989725476
0	10394	212	9.732770396
0	10395	212	9.732770396
0	10487	213	10.732770396
0	10545	214	11.732770396
0	10546	214	9.924155396
0	10621	215	10.924155396
0	10660	216	11.924155396
0	10661	216	11.924155396
0	10725	217	12.616301629
0	10726	217	12.616301629
0	10779	218	13.616301629
0	10780	218	13.616301629
0	10813	219	14.538449295
0	10814	219	14.538449295
0	10815	219	14.538449295
0	10861	220	15.538449295
0	10862	220	14.903109513
0	10913	221	15.903109513
0	10914	221	15.903109513
0	10957	222	16.903109513
0	10958	222	16.850177933
0	11003	223	17.850177933
0	11004	223	17.850177933
0	11024	224	18.850177933
0	11025	224	17.524241271
0	11062	225	18.524241271
0	11063	225	18.524241271
0	11103	226	19.524241271
0	11104	226	16.116807942
0	11142	227	17.116807942
0	11143	227	17.116807942
0	11191	228	18.116807942
0	11192	228	16.621194904
0	11193	228	16.621194904
0	11253	229	17.621194904
0	11254	229	17.621194904
0	11314	230	17.215388842
0	11315	230	17.215388842
0	11370	231	18.215388842
0	11371	231	18.215388842
0	11442	232	18.475720824
0	11443	232	18.475720824
0	11529	233	19.475720824
0	11530	233	19.475720824
0	11601	234	20.148563485
0	11602	234	20.148563485
0	11656	235	21.148563485
0	11657	235	21.148563485
0	11712	236	19.009141331
0	11713	236	19.009141331
0	11758	237	20.009141331
0	11759	237	20.009141331
0	11793	238	15.352864322
0	11794	238	15.352864322
0	11839	239	16.352864322
0	11840	239	16.352864322
0	11841	239	12.234774314
0	11899	240	13.234774314
0	11900	240	13.234774314
0	11935	241	14.234774314
0	11936	241	13.657894722
0	11937	241	13.657894722
0	11964	242	14.657894722
0	11965	242	14.657894722
0	12018	243	14.954380386
0	12019	243	14.954380386
0	12073	244	15.954380386
0	12074	244	15.954380386
0	12171	245	16.148954469
0	12172	245	16.148954469
0	12218	246	17.148954469
0	12219	246	17.148954469
0	12255	247	14.566153014
0	12256	247	14.566153014
0	12283	248	15.566153014
0	12284	248	15.566153014
0	12285	248	15.13207333
0	12335	249	16.13207333
0	12336	249	16.13207333
0	12400	250	17.13207333
0	12401	250	14.544849755
0	12464	251	15.544849755
0	12465	251	15.544849755
0	12506	252	16.544849755
0	12507	252	15.416506588
0	12569	253	16.416506588
0	12570	253	16.416506588
0	12611	254	17.416506588
0	12612	254	14.053550975
0	12685	255	15.053550975
0	12686	255	15.053550975
0	12722	256	16.053550975
0	12723	256	15.342273896
0	12756	257	16.342273896
0	12757	257	16.342273896
0	12797	258	17.342273896
0	12798	258	14.546329029
0	12848	259	15.546329029
0	12849	259	15.546329029
0	12894	260	16.546329029
0	12895	260	14.556444607
0	12963	261	15.556444607
0	12964	261	15.556444607
0	13055	262	16.556444607
0	13056	262	12.846575939
0	13110	263	13.846575939
0	13111	263	13.846575939
0	13135	264	14.846575939
0	13136	264	13.463747886
0	13201	265	14.463747886
0	13202	265	14.463747886
0	13230	266	15.463747886
0	13231	266	13.911296733
0	13271	267	14.911296733
0	13272	267	14.911296733
0	13331	268	15.911296733
0	13332	268	12.034367537
0	13377	269	13.034367537
0	13378	269	13.034367537
0	13446	270	14.034367537
0	13447	270	9.09051269
0	13502	271	10.09051269
0	13503	271	10.09051269
0	13567	272	11.09051269
0	13568	272	10.125156626
0	13623	273	11.125156626
0	13624	273	11.125156626
0	13688	274	12.125156626
0	13689	274	11.711895261
0	13744	275	12.711895261
0	13745	275	12.711895261
0	13801	276	13.711895261
0	13802	276	4.306983946
0	13858	277	5.306983946
0	13859	277	5.306983946
0	13923	278	6.306983946
0	13924	278	5.844392509
0	13960	279	6.844392509
0	13961	279	6.844392509
0	14011	280	7.844392509
0	14012	280	3.786391318
0	14057	281	4.786391318
0	14058	281	4.786391318
0	14088	282	5.786391318
0	14089	282	2.058589528
0	14145	283	3.058589528
0	14146	283	3.058589528
0	14210	284	4.058589528
0	14211	284	2.107343555
0	14274	285	3.107343555
0	14275	285	3.107343555
0	14325	286	4.107343555
0	14326	286	1.6875552
0	14327	286	1.6875552
0	14363	287	2.6875552
0	14364	287	2.6875552
0	14409	288	0.888068014
0	14410	288	0.888068014
0	14428	289	1.888068014
0	14429	289	1.888068014
0	14467	290	2.151926323
0	14468	290	2.151926323
0	14513	291	3.151926323
0	14514	291	3.151926323
0	14562	292	0.680818146
0	14563	292	0.680818146
0	14621	293	1.680818146
0	14622	293	1.680818146
0	14645	294	1.642624029
0	14646	294	1.642624029
0	14679	295	2.642624029
0	14680	295	2.642624029
0	14726	296	1.254548531
0	14727	296	1.254548531
0	14770	297	2.254548531
0	14771	297	2.254548531
0	14823	298	1.324365921
0	14824	298	1.324365921
0	14842	299	2.324365921
0	14843	299	2.324365921
0	14906	300	2.360820372
0	14907	300	2.360820372
0	14934	301	3.360820372
0	14935	301	3.360820372
0	14990	302	2.898415091
0	14991	302	2.898415091
0	15032	303	3.898415091
0	15033	303	3.898415091
0	15060	304	4.340934043
0	15061	304	4.340934043
0	15098	305	5.340934043
0	15099	305	5.340934043
0	15132	306	6.191799788
0	15133	306	6.191799788
0	15174	307	7.191799788
0	15175	307	7.191799788
0	15202	308	7.330679023
0	15203	308	7.330679023
0	15240	309	8.330679023
0	15241	309	8.330679023
0	15263	310	6.805083374
0	15264	310	6.805083374
0	15288	311	7.805083374
0	15289	311	7.805083374
0	15336	312	5.799015751
0	15337	312	5.799015751
0	15381	313	6.799015751
0	15382	313	6.799015751
0	15400	314	6.501982023
0	15401	314	6.501982023
0	15448	315	7.501982023
0	15449	315	7.501982023
0	15503	316	7.022178639
0	15504	316	7.022178639
0	15548	317	8.022178639
0	15549	317	8.022178639
0	15578	318	3.700639899
0	15579	318	3.700639899
0	15609	319	4.700639899
0	15610	319	4.700639899
0	15677	320	0.739233971
0	15678	320	0.739233971
0	15721	321	1.739233971
0	15722	321	1.739233971
0	15815	323	0.997659048
0	15816	323	0.997659048
0	15868	324	1.997659048
0	15869	324	1.997659048
0	15870	324	1.326383227
0	15915	325	2.326383227
0	15916	325	2.326383227
0	15960	326	3.326383227
0	15961	326	1.117325493
0	15995	327	2.117325493
0	15996	327	2.117325493
0	16038	328	3.117325493
0	16079	329	0.665490771
0	16080	329	0.665490771
0	16125	330	1.665490771
0	16126	330	1.665490771
0	16171	331	1.400233567
0	16172	331	1.400233567
0	16209	332	2.400233567
0	16210	332	2.400233567
0	16297	333	2.954617902
0	16298	333	2.954617902
0	16352	334	3.954617902
0	16353	334	3.954617902
0	16416	335	2.472624949
0	16417	335	2.472624949
0	16442	336	3.472624949
0	16443	336	3.472624949
0	16472	337	2.206862392
0	16473	337	2.206862392
0	16514	338	3.206862392
0	16515	338	3.206862392
0	16737	344	0.547472108
0	16738	344	0.547472108
0	16739	344	0.547472108
0	16801	345	1.547472108
0	16867	346	1.444203443
0	16868	346	1.444203443
0	16913	347	2.444203443
0	16914	347	2.444203443
0	17306	355	0.268637194
0	17307	355	0.268637194
0	17308	355	0.268637194
0	17309	355	0.268637194
0	17595	360	0.770371759
0	17596	360	0.770371759
0	17597	360	0.770371759
0	17598	360	0.770371759
0	17599	360	0.023882565
0	17600	360	0.023882565
0	17601	360	0.023882565
0	17623	361	1.023882565
0	17767	365	0.41389583
0	17768	365	0.41389583
0	17769	365	0.41389583
0	17797	366	1.41389583
0	17798	366	1.156259676
0	17820	367	2.156259676
0	17821	367	2.156259676
0	17855	368	3.156259676
0	17856	368	2.766846093
0	17929	369	3.766846093
0	17930	369	3.766846093
0	17974	370	4.766846093
0	17975	370	0.602067033
0	18030	371	1.602067033
0	18031	371	1.602067033
0	18100	372	2.602067033
0	18294	378	0.795325146
0	18295	378	0.795325146
0	18296	378	0.795325146
0	18297	378	0.795325146
0	18332	379	0.176733981
0	18333	379	0.176733981
0	18386	380	1.176733981
0	18468	381	2.176733981
0	18469	381	0.706453085
0	18537	382	1.706453085
0	18538	382	1.706453085
0	18561	383	2.706453085
0	18562	383	1.190910004
0	18599	384	2.190910004
0	18600	384	2.190910004
0	18652	385	3.190910004
0	18653	385	0.848581867
0	18680	386	1.848581867
0	18681	386	1.848581867
0	18729	387	2.848581867
0	18730	387	0.059647324
0	18753	388	1.059647324
0	18754	388	1.059647324
0	18790	389	2.059647324
0	18829	391	0.974573068
0	18830	391	0.974573068
0	18873	392	1.974573068
0	18874	392	1.974573068
0	18962	393	1.570050092
0	18963	393	1.570050092
0	19011	394	2.570050092
0	19012	394	2.570050092
0	19068	395	2.730756554
0	19069	395	2.730756554
0	19123	396	3.730756554
0	19124	396	3.730756554
0	19174	397	3.948258938
0	19175	397	3.948258938
0	19211	398	4.948258938
0	19212	398	4.948258938
0	19270	399	4.445328214
0	19271	399	4.445328214
0	19334	400	5.445328214
0	19335	400	5.445328214
0	19356	401	6.336781447
0	19357	401	6.336781447
0	19394	402	7.336781447
0	19395	402	7.336781447
0	19418	403	5.477738935
0	19419	403	5.477738935
0	19455	404	6.477738935
0	19456	404	6.477738935
0	19521	405	6.965963956
0	19586	406	7.965963956
0	19587	406	7.965963956
0	19623	407	8.965963956
0	19624	407	1.813860106
0	19694	408	2.813860106
0	19695	408	2.813860106
0	19756	409	3.813860106
0	19874	411	0.775921654
0	19875	411	0.775921654
0	19915	412	1.775921654
0	19916	412	1.775921654
0	19993	413	2.329082429
0	19994	413	2.329082429
0	20039	414	3.329082429
0	20040	414	3.329082429
0	20089	415	2.980034652
0	20090	415	2.980034652
0	20132	416	3.980034652
0	20133	416	3.980034652
0	20175	417	1.398348204
0	20176	417	1.398348204
0	20253	418	2.398348204
0	20254	418	2.398348204
0	20285	419	1.7774381
0	20286	419	1.7774381
0	20318	420	2.7774381
0	20319	420	2.7774381
0	20362	421	3.095491104
0	20363	421	3.095491104
0	20391	422	4.095491104
0	20392	422	4.095491104
0	20451	423	2.615828839
0	20452	423	2.615828839
0	20517	424	3.615828839
0	20518	424	3.615828839
0	20574	425	2.71581552
0	20575	425	2.71581552
0	20611	426	3.71581552
0	20612	426	3.71581552
0	20644	427	4.083875376
0	20645	427	4.083875376
0	20646	427	4.083875376
0	20729	428	5.083875376
0	20730	428	0.99925479
0	20783	429	1.99925479
0	20784	429	1.99925479
0	20854	430	2.99925479
0	20855	430	0.779132928
0	20910	431	1.779132928
0	20911	431	1.779132928
0	20955	432	2.779132928
0	20956	432	2.215922305
0	21015	433	3.215922305
0	21016	433	3.215922305
0	21079	434	4.215922305
0	21293	439	0.021247747
0	21294	439	0.021247747
0	21295	439	0.021247747
0	21296	439	0.021247747
0	21462	444	0.315844392
0	21463	444	0.315844392
0	21464	444	0.315844392
0	21525	445	1.315844392
0	21625	447	0.605818882
0	21626	447	0.605818882
0	21627	447	0.605818882
0	21668	448	1.605818882
0	21798	452	0.879156164
0	21799	452	0.879156164
0	21800	452	0.879156164
0	21801	452	0.879156164
0	21906	454	0.983246845
0	21907	454	0.983246845
0	21908	454	0.983246845
0	21973	455	1.983246845
0	22019	456	1.617502825
0	22020	456	1.617502825
0	22042	457	2.617502825
0	22043	457	2.617502825
0	22092	458	0.962776391
0	22093	458	0.962776391
0	22132	459	1.962776391
0	22133	459	1.962776391
0	22161	460	2.611411597
0	22162	460	2.611411597
0	22221	461	3.611411597
0	22222	461	3.611411597
0	22265	462	3.897449348
0	22266	462	3.897449348
0	22297	463	4.897449348
0	22298	463	4.897449348
0	22377	465	0.703587579
0	22378	465	0.703587579
0	22379	465	0.703587579
0	22405	466	1.703587579
0	22491	469	0.742622747
0	22492	469	0.742622747
0	22493	469	0.742622747
0	22543	470	1.742622747
0	22544	470	0.871151971
0	22591	471	1.871151971
0	22592	471	1.871151971
0	22642	472	2.871151971
0	22643	472	1.567014601
0	22688	473	2.567014601
0	22689	473	2.567014601
0	22721	474	3.567014601
0	22722	474	2.822722943
0	22774	475	3.822722943
0	22829	476	4.822722943
0	22830	476	4.822722943
0	22874	477	5.263296015
0	22875	477	5.263296015
0	22876	477	5.263296015
0	22941	478	6.263296015
0	22942	478	5.210018398
0	23005	479	6.210018398
0	23006	479	6.210018398
0	23037	480	7.210018398
0	23038	480	6.876771428
0	23087	481	7.876771428
0	23088	481	7.876771428
0	23107	482	8.876771428
0	23108	482	4.085632189
0	23141	483	5.085632189
0	23142	483	5.085632189
0	23189	484	6.085632189
0	23190	484	4.350075483
0	23237	485	5.350075483
0	23238	485	5.350075483
0	23301	486	6.350075483
0	23302	486	5.50306168
0	23326	487	6.50306168
0	23327	487	6.50306168
0	23372	488	7.50306168
0	23373	488	3.323787447
0	23399	489	4.323787447
0	23400	489	4.323787447
0	23438	490	5.323787447
0	23439	490	2.056137806
0	23486	491	3.056137806
0	23487	491	3.056137806
0	23535	492	4.056137806
0	23536	492	2.295324271
0	23597	493	3.295324271
0	23598	493	3.295324271
0	23652	494	4.295324271
0	23697	495	4.474330111
0	23698	495	4.474330111
0	23699	495	4.474330111
0	23733	496	5.474330111
0	23734	496	3.875651264
0	23785	497	4.875651264
0	23786	497	4.875651264
0	23837	498	5.875651264
0	23838	498	4.00619794
0	23876	499	5.00619794
0	23877	499	5.00619794
0	23908	500	6.00619794
0	23909	500	5.542694934
0	23949	501	6.542694934
0	23950	501	6.542694934
0	23998	502	7.542694934
0	23999	502	6.425672149
0	24041	503	7.425672149
0	24042	503	7.425672149
0	24065	504	8.425672149
0	24066	504	7.665359798
0	24067	504	7.665359798
0	24104	505	8.665359798
0	24105	505	8.665359798
0	24147	506	4.122911679
0	24148	506	4.122911679
0	24193	507	5.122911679
0	24194	507	5.122911679
0	24222	508	1.818667399
0	24223	508	1.818667399
0	24294	509	2.818667399
0	24295	509	2.818667399
0	24360	510	1.094599467
0	24361	510	1.094599467
0	24415	511	2.094599467
0	24416	511	2.094599467
0	24495	512	0.677138365
0	24496	512	0.677138365
0	24533	513	1.677138365
0	24534	513	1.677138365
0	24535	513	1.566551458
0	24578	514	2.566551458
0	24579	514	2.566551458
0	24606	515	3.566551458
0	24646	516	0.533432212
0	24647	516	0.533432212
0	24688	517	1.533432212
0	24689	517	1.533432212
0	24823	519	0.231141992
0	24824	519	0.231141992
0	24825	519	0.231141992
0	24897	520	1.231141992
0	24898	520	0.086936692
0	24934	521	1.086936692
0	24935	521	1.086936692
0	24955	522	2.086936692
0	25011	523	0.373804499
0	25012	523	0.373804499
0	25047	524	1.373804499
0	25048	524	1.373804499
0	25182	526	0.984773727
0	25183	526	0.984773727
0	25184	526	0.984773727
0	25225	527	1.984773727
0	25226	527	1.947837645
0	25255	528	2.947837645
0	25256	528	2.947837645
0	25312	529	3.947837645
0	25313	529	3.481633853
0	25370	530	4.481633853
0	25371	530	4.481633853
0	25406	531	5.481633853
0	25407	531	2.470003199
0	25439	532	3.470003199
0	25440	532	3.470003199
0	25507	533	4.470003199
0	25508	533	4.037064984
0	25556	534	5.037064984
0	25557	534	5.037064984
0	25607	535	6.037064984
0	25608	535	5.82804933
0	25640	536	6.82804933
0	25641	536	6.82804933
0	25692	537	7.82804933
0	25693	537	4.428039512
0	25749	538	5.428039512
0	25750	538	5.428039512
0	25801	539	6.428039512
0	25802	539	0.915252299
0	25837	540	1.915252299
0	25838	540	1.915252299
0	25839	540	1.915252299
0	25970	543	0.666181139
0	25971	543	0.666181139
0	25972	543	0.666181139
0	25997	544	1.666181139
0	26109	547	0.701232944
0	26110	547	0.701232944
0	26111	547	0.701232944
0	26139	548	1.701232944
0	26207	549	0.946336611
0	26208	549	0.946336611
0	26255	550	1.946336611
0	26256	550	1.946336611
0	26352	552	0.102771559
0	26353	552	0.102771559
0	26354	552	0.102771559
0	26355	552	0.102771559
0	26731	559	0.850047078
0	26732	559	0.850047078
0	26733	559	0.850047078
0	26734	559	0.850047078
0	26787	560	0.170479403
0	26788	560	0.170479403
0	26834	561	1.170479403
0	26835	561	1.170479403
0	26995	565	0.240335344
0	26996	565	0.240335344
0	26997	565	0.240335344
0	27057	566	1.240335344
0	27646	581	0.076170221
0	27647	581	0.076170221
0	27648	581	0.076170221
0	27649	581	0.076170221
0	27723	583	0.132587758
0	27724	583	0.132587758
0	27725	583	0.132587758
0	27726	583	0.132587758
0	27809	585	0.363178411
0	27810	585	0.363178411
0	27844	586	1.363178411
0	27845	586	1.363178411
0	27883	587	0.255130086
0	27884	587	0.255130086
0	27913	588	1.255130086
0	27914	588	1.255130086
0	27970	589	0.505340443
0	27971	589	0.505340443
0	28028	590	1.505340443
0	28029	590	1.505340443
0	28092	591	2.476696835
0	28093	591	2.476696835
0	28191	592	3.476696835
0	28192	592	3.476696835
0	28422	596	0.794700334
0	28423	596	0.794700334
0	28424	596	0.794700334
0	28459	597	1.794700334
0	28695	602	0.478618619
0	28696	602	0.478618619
0	28697	602	0.478618619
0	28698	602	0.478618619
0	28766	603	0.837519398
0	28813	604	1.837519398
0	28814	604	1.837519398
0	28815	604	1.837519398
0	28877	605	0.657692157
0	28878	605	0.657692157
0	28912	606	1.657692157
0	28913	606	1.657692157
0	28914	606	1.160129805
0	28968	607	2.160129805
0	28969	607	2.160129805
0	29015	608	3.160129805
0	29016	608	2.784510553
0	29056	609	3.784510553
0	29057	609	3.784510553
0	29152	610	4.784510553
0	29153	610	3.915887009
0	29199	611	4.915887009
0	29200	611	4.915887009
0	29254	612	5.915887009
0	29255	612	5.550451888
0	29289	613	6.550451888
0	29290	613	6.550451888
0	29349	614	7.550451888
0	29350	614	6.131978783
0	29387	615	7.131978783
0	29388	615	7.131978783
0	29442	616	8.131978783
0	29443	616	7.102375786
0	29444	616	7.102375786
0	29492	617	8.102375786
0	29493	617	8.102375786
0	29521	618	7.326592106
0	29522	618	7.326592106
0	29543	619	8.326592106
0	29544	619	8.326592106
0	29587	620	6.84474438
0	29588	620	6.84474438
0	29678	621	7.84474438
0	29679	621	7.84474438
0	29725	622	8.779557411
0	29726	622	8.779557411
0	29787	623	9.779557411
0	29788	623	9.779557411
0	29853	624	7.185171199
0	29854	624	7.185171199
0	29890	625	8.185171199
0	29891	625	8.185171199
0	29941	626	5.415888265
0	29942	626	5.415888265
0	29988	627	6.415888265
0	29989	627	6.415888265
0	30030	628	6.183271518
0	30031	628	6.183271518
0	30068	629	7.183271518
0	30069	629	7.183271518
0	30120	630	7.692975244
0	30121	630	7.692975244
0	30192	631	8.692975244
0	30193	631	8.692975244
0	30244	632	6.079401617
0	30245	632	6.079401617
0	30317	633	7.079401617
0	30318	633	7.079401617
0	30363	634	6.603048501
0	30364	634	6.603048501
0	30406	635	7.603048501
0	30407	635	7.603048501
0	30459	636	6.377622994
0	30460	636	6.377622994
0	30524	637	7.377622994
0	30525	637	7.377622994
0	30570	638	4.545469426
0	30571	638	4.545469426
0	30623	639	5.545469426
0	30624	639	5.545469426
0	30698	640	3.690154986
0	30764	641	4.690154986
0	30765	641	4.690154986
0	30766	641	4.690154986
0	30847	642	1.700850326
0	30848	642	1.700850326
0	30912	643	2.700850326
0	30913	643	2.700850326
0	30987	645	0.781111976
0	30988	645	0.781111976
0	31015	646	1.781111976
0	31016	646	1.781111976
0	31067	647	2.240150489
0	31068	647	2.240150489
0	31124	648	3.240150489
0	31125	648	3.240150489
0	31236	651	0.896712697
0	31237	651	0.896712697
0	31238	651	0.896712697
0	31279	652	1.896712697
0	31334	653	0.852299368
0	31335	653	0.852299368
0	31380	654	1.852299368
0	31381	654	1.852299368
0	31444	655	2.153966059
0	31445	655	2.153966059
0	31497	656	3.153966059
0	31498	656	3.153966059
0	31549	657	3.788384365
0	31550	657	3.788384365
0	31588	658	4.788384365
0	31589	658	4.788384365
0	31590	658	3.793833458
0	31649	659	4.793833458
0	31650	659	4.793833458
0	31706	660	5.793833458
0	31707	660	3.53277921
0	31780	661	4.53277921
0	31781	661	4.53277921
0	31854	662	5.53277921
0	31855	662	4.682422684
0	31909	663	5.682422684
0	31910	663	5.682422684
0	31942	664	6.682422684
0	31943	664	5.774354816
0	31999	665	6.774354816
0	32000	665	6.774354816
0	32065	666	7.774354816
0	32066	666	6.818927175
0	32113	667	7.818927175
0	32141	668	8.818927175
0	32142	668	8.818927175
0	32143	668	7.471617846
0	32190	669	8.471617846
0	32191	669	8.471617846
0	32219	670	9.471617846
0	32220	670	9.381154501
0	32234	671	10.381154501
0	32235	671	10.381154501
0	32258	672	11.381154501
0	32259	672	10.018218477
0	32303	673	11.018218477
0	32304	673	11.018218477
0	32360	674	12.018218477
0	32361	674	8.753984274
0	32407	675	9.753984274
0	32408	675	9.753984274
0	32460	676	10.753984274
0	32461	676	7.687132313
0	32537	677	8.687132313
0	32538	677	8.687132313
0	32601	678	9.687132313
0	32602	678	8.956789617
0	32625	679	9.956789617
0	32626	679	9.956789617
0	32663	680	10.956789617
0	32664	680	3.160228443
0	32696	681	4.160228443
0	32697	681	4.160228443
0	32726	682	5.160228443
0	32727	682	4.589585106
0	32744	683	5.589585106
0	32745	683	5.589585106
0	32804	684	6.589585106
0	32805	684	0.172171922
0	32833	685	1.172171922
0	32834	685	1.172171922
0	32894	686	2.172171922
0	32895	686	0.460712436
0	32964	687	1.460712436
0	32965	687	1.460712436
0	33006	688	2.460712436
0	33007	688	1.439469205
0	33073	689	2.439469205
0	33120	690	3.439469205
0	33121	690	3.439469205
0	33174	691	3.990524863
0	33175	691	3.990524863
0	33211	692	4.990524863
0	33212	692	4.990524863
0	33245	693	4.197915993
0	33246	693	4.197915993
0	33295	694	5.197915993
0	33296	694	5.197915993
0	33398	696	0.998325905
0	33399	696	0.998325905
0	33400	696	0.998325905
0	33401	696	0.998325905
0	33591	700	0.309692876
0	33592	700	0.309692876
0	33593	700	0.309692876
0	33594	700	0.309692876
0	33703	702	0.873028407
0	33704	702	0.873028407
0	33705	702	0.873028407
0	33740	703	1.873028407
0	33741	703	1.18929249
0	33769	704	2.18929249
0	33770	704	2.18929249
0	33805	705	3.18929249
0	33806	705	3.042685917
0	33854	706	4.042685917
0	33855	706	4.042685917
0	33894	707	5.042685917
0	33895	707	3.828857747
0	33970	708	4.828857747
0	33971	708	4.828857747
0	34053	709	5.828857747
0	34054	709	4.405480006
0	34099	710	5.405480006
0	34100	710	5.405480006
0	34153	711	6.405480006
0	34154	711	4.59205658
0	34200	712	5.59205658
0	34201	712	5.59205658
0	34235	713	6.59205658
0	34236	713	5.764700566
0	34237	713	5.764700566
0	34260	714	6.764700566
0	34261	714	6.764700566
0	34284	715	2.313930075
0	34285	715	2.313930075
0	34329	716	3.313930075
0	34330	716	3.313930075
0	34366	717	3.849279943
0	34367	717	3.849279943
0	34436	718	4.849279943
0	34437	718	4.849279943
0	34488	719	0.169360041
0	34489	719	0.169360041
0	34519	720	1.169360041
0	34520	720	1.169360041
0	34654	722	0.773314638
0	34655	722	0.773314638
0	34698	723	1.773314638
0	34699	723	1.773314638
0	34745	724	2.045141712
0	34746	724	2.045141712
0	34838	725	3.045141712
0	34839	725	3.045141712
0	34921	726	3.529153066
0	34922	726	3.529153066
0	34923	726	3.529153066
0	34984	727	4.529153066