version 3
run Sched1-0-20250309-17:38:06-14152
attr configname Sched1
attr datetime 20250309-17:38:06
attr datetimef 20250309-173806
attr experiment Sched1
attr inifile omnetpp.ini
attr iterationvars ""
attr iterationvarsd ""
attr iterationvarsf ""
attr measurement ""
attr network RadioSch2
attr processid 14152
attr repetition 0
attr replication #0
attr resultdir results
attr runnumber 0
attr seedset 0
config description "low job arrival rate"
config *.scalar-recording true
config *.vector-recording true
config **.user[*].generator.sendIaTime "0.2 ms"
config *.user[*].generator.networkLoad 0.8
config *.user[*].generator.packetsPerUser 4
config *.user[*].generator.channels 14
config *.user[*].generator.usersCount 7
config *.user[*].generator.MAX_Sim "10 s"
config *.usersCount 7
config network RadioSch2
config sim-time-limit 100h
config cpu-time-limit 300s
config simtime-resolution ns
config record-eventlog true

vector 0 RadioSch2.sink lifetime_user0:vector ETV
attr interpolationmode none
attr recordingmode vector
attr title "User 0 Packet Lifetime"
attr unit s
vector 1 RadioSch2.sink lifetime_user1:vector ETV
attr interpolationmode none
attr recordingmode vector
attr title "User 1 Packet Lifetime"
attr unit s
vector 2 RadioSch2.sink lifetime_user2:vector ETV
attr interpolationmode none
attr recordingmode vector
attr title "User 2 Packet Lifetime"
attr unit s
vector 3 RadioSch2.sink lifetime_user3:vector ETV
attr interpolationmode none
attr recordingmode vector
attr title "User 3 Packet Lifetime"
attr unit s
vector 4 RadioSch2.sink lifetime_user4:vector ETV
attr interpolationmode none
attr recordingmode vector
attr title "User 4 Packet Lifetime"
attr unit s
vector 5 RadioSch2.sink lifetime_user5:vector ETV
attr interpolationmode none
attr recordingmode vector
attr title "User 5 Packet Lifetime"
attr unit s
vector 6 RadioSch2.sink lifetime_user6:vector ETV
attr interpolationmode none
attr recordingmode vector
attr title "User 6 Packet Lifetime"
attr unit s
vector 7 RadioSch2.flc "delay vector" ETV
vector 8 RadioSch2.flc "result nescalat" ETV
vector 9 RadioSch2.flc "res scalat" ETV
vector 10 RadioSch2.flc "weight vector" ETV
0	95	1	1
0	161	2	2
0	207	3	3
0	208	3	3
0	367	6	0.441188945
0	368	6	0.441188945
0	369	6	0.441188945
0	427	7	1.441188945
0	428	7	1.035847721
0	474	8	2.035847721
0	475	8	2.035847721
0	546	9	3.035847721
0	547	9	2.407242891
0	603	10	3.407242891
0	652	11	4.407242891
0	718	12	5.407242891
0	751	13	0.591365237
0	752	13	0.591365237
0	799	14	1.591365237
0	800	14	1.591365237
0	855	15	0.809906254
0	856	15	0.809906254
0	901	16	1.809906254
0	902	16	1.809906254
0	1093	20	0.499313261
0	1094	20	0.499313261
0	1158	21	1.499313261
0	1159	21	1.499313261
0	1214	22	1.238453745
0	1215	22	1.238453745
0	1260	23	2.238453745
0	1261	23	2.238453745
0	1292	24	1.747505259
0	1293	24	1.747505259
0	1339	25	2.747505259
0	1340	25	2.747505259
0	1396	26	1.052918049
0	1397	26	1.052918049
0	1429	27	2.052918049
0	1430	27	2.052918049
0	1517	28	0.64698041
0	1518	28	0.64698041
0	1564	29	1.64698041
0	1565	29	1.64698041
0	1652	31	0.604431672
0	1653	31	0.604431672
0	1689	32	1.604431672
0	1690	32	1.604431672
0	2107	41	0.479814575
0	2108	41	0.479814575
0	2109	41	0.479814575
0	2110	41	0.479814575
0	2207	43	0.851737745
0	2208	43	0.851737745
0	2271	44	1.851737745
0	2272	44	1.851737745
0	2495	49	0.982128341
0	2496	49	0.982128341
0	2497	49	0.982128341
0	2498	49	0.982128341
0	2553	50	0.721428508
0	2554	50	0.721428508
0	2595	51	1.721428508
0	2596	51	1.721428508
0	2654	53	0.520367623
0	2655	53	0.520367623
0	2703	54	1.520367623
0	2704	54	1.520367623
0	2836	57	0.675795837
0	2837	57	0.675795837
0	2879	58	1.675795837
0	2880	58	1.675795837
0	2910	59	2.642482725
0	2911	59	2.642482725
0	2935	60	3.642482725
0	2936	60	3.642482725
0	3209	66	0.493339398
0	3210	66	0.493339398
0	3211	66	0.493339398
0	3212	66	0.493339398
0	3323	69	0.618985929
0	3324	69	0.618985929
0	3398	70	1.618985929
0	3464	71	2.618985929
0	3613	74	0.053775955
0	3614	74	0.053775955
0	3615	74	0.053775955
0	3616	74	0.053775955
0	3932	80	0.812185271
0	3933	80	0.812185271
0	3934	80	0.812185271
0	3996	81	1.812185271
0	3997	81	0.714492807
0	4040	82	1.714492807
0	4041	82	1.714492807
0	4091	83	2.714492807
0	4143	84	0.863795615
0	4144	84	0.863795615
0	4235	85	1.863795615
0	4300	86	2.863795615
0	4301	86	1.683875396
0	4345	87	2.683875396
0	4346	87	2.683875396
0	4378	88	3.683875396
0	4379	88	3.567038142
0	4430	89	4.567038142
0	4431	89	4.567038142
0	4486	90	5.567038142
0	4487	90	4.63913384
0	4542	91	5.63913384
0	4543	91	5.63913384
0	4596	92	6.63913384
0	4597	92	5.788540791
0	4636	93	6.788540791
0	4637	93	6.788540791
0	4661	94	7.788540791
0	4662	94	5.967596858
0	4688	95	6.967596858
0	4689	95	6.967596858
0	4741	96	7.967596858
0	4742	96	6.700788823
0	4776	97	7.700788823
0	4777	97	7.700788823
0	4817	98	8.700788823
0	4818	98	2.817451903
0	4894	99	3.817451903
0	4895	99	3.817451903
0	4947	100	4.817451903
0	4948	100	4.755131664
0	5003	101	5.755131664
0	5075	102	6.755131664
0	5076	102	6.755131664
0	5116	103	4.748738302
0	5117	103	4.748738302
0	5140	104	5.748738302
0	5141	104	5.748738302
0	5169	105	4.769715565
0	5170	105	4.769715565
0	5207	106	5.769715565
0	5208	106	5.769715565
0	5271	107	5.602554706
0	5272	107	5.602554706
0	5352	108	6.602554706
0	5353	108	6.602554706
0	5414	109	7.141015024
0	5462	110	8.141015024
0	5463	110	8.141015024
0	5535	111	9.141015024
0	5536	111	3.347199868
0	5569	112	4.347199868
0	5570	112	4.347199868
0	5636	113	5.347199868
0	5637	113	5.085419184
0	5672	114	6.085419184
0	5673	114	6.085419184
0	5743	115	7.085419184
0	5781	116	5.114596283
0	5782	116	5.114596283
0	5818	117	6.114596283
0	5819	117	6.114596283
0	6073	123	0.298608291
0	6074	123	0.298608291
0	6075	123	0.298608291
0	6076	123	0.298608291
0	6141	125	0.881853391
0	6142	125	0.881853391
0	6169	126	1.881853391
0	6170	126	1.881853391
0	6276	129	0.570873677
0	6277	129	0.570873677
0	6315	130	1.570873677
0	6316	130	1.570873677
0	6419	133	0.862940157
0	6420	133	0.862940157
0	6421	133	0.862940157
0	6481	134	1.862940157
0	6482	134	0.657992133
0	6552	135	1.657992133
0	6553	135	1.657992133
0	6603	136	2.657992133
0	6604	136	1.024358984
0	6672	137	2.024358984
0	6673	137	2.024358984
0	6709	138	3.024358984
0	6710	138	1.731441666
0	6782	139	2.731441666
0	6783	139	2.731441666
0	6837	140	3.731441666
0	6879	141	0.410793234
0	6880	141	0.410793234
0	6920	142	1.410793234
0	6921	142	1.410793234
0	7012	143	0.55398386
0	7085	144	1.55398386
0	7086	144	1.55398386
0	7138	145	2.55398386
0	7139	145	1.751489715
0	7184	146	2.751489715
0	7185	146	2.751489715
0	7255	147	3.751489715
0	7293	148	4.609780012
0	7294	148	4.609780012
0	7338	149	5.609780012
0	7339	149	5.609780012
0	7412	150	4.55913253
0	7413	150	4.55913253
0	7449	151	5.55913253
0	7450	151	5.55913253
0	7491	152	0.008628588
0	7492	152	0.008628588
0	7524	153	1.008628588
0	7525	153	1.008628588
0	7679	157	0.483351059
0	7680	157	0.483351059
0	7681	157	0.483351059
0	7727	158	1.483351059
0	7887	161	0.775952648
0	7888	161	0.775952648
0	7889	161	0.775952648
0	7918	162	1.775952648
0	7959	163	0.507420348
0	7960	163	0.507420348
0	7992	164	1.507420348
0	7993	164	1.507420348
0	8298	170	0.950356543
0	8299	170	0.950356543
0	8300	170	0.950356543
0	8301	170	0.950356543
0	8543	176	0.79161997
0	8544	176	0.79161997
0	8545	176	0.79161997
0	8546	176	0.79161997
0	8623	177	0.754228513
0	8659	178	1.754228513
0	8660	178	1.754228513
0	8716	179	2.754228513
0	8717	179	0.21494683
0	8736	180	1.21494683
0	8737	180	1.21494683
0	8763	181	2.21494683
0	8764	181	2.097182236
0	8806	182	3.097182236
0	8807	182	3.097182236
0	8870	183	4.097182236
0	8871	183	0.846459381
0	8906	184	1.846459381
0	8907	184	1.846459381
0	8967	185	2.846459381
0	9123	189	0.101251774
0	9124	189	0.101251774
0	9125	189	0.101251774
0	9126	189	0.101251774
0	9318	193	0.812745543
0	9319	193	0.812745543
0	9320	193	0.812745543
0	9321	193	0.812745543
0	9358	194	0.882041085
0	9359	194	0.882041085
0	9396	195	1.882041085
0	9397	195	1.882041085
0	9471	196	2.26836738
0	9472	196	2.26836738
0	9524	197	3.26836738
0	9525	197	3.26836738
0	9568	198	3.308188451
0	9569	198	3.308188451
0	9648	199	4.308188451
0	9649	199	4.308188451
0	9708	200	4.2484576
0	9709	200	4.2484576
0	9751	201	5.2484576
0	9752	201	5.2484576
0	9777	202	3.810384994
0	9778	202	3.810384994
0	9860	203	4.810384994
0	9861	203	4.810384994
0	9903	204	5.26107563
0	9904	204	5.26107563
0	9992	205	6.26107563
0	9993	205	6.26107563
0	10083	206	6.403976315
0	10130	207	7.403976315
0	10131	207	7.403976315
0	10153	208	8.403976315
0	10154	208	8.037486834
0	10198	209	9.037486834
0	10199	209	9.037486834
0	10257	210	10.037486834
0	10258	210	7.989725476
0	10327	211	8.989725476
0	10381	212	9.989725476
0	10382	212	9.989725476
0	10471	213	10.732770396
0	10529	214	11.732770396
0	10530	214	11.732770396
0	10605	215	12.732770396
0	10645	216	11.924155396
0	10712	217	12.924155396
0	10770	218	13.924155396
0	10771	218	13.924155396
0	10807	219	14.616301629
0	10808	219	14.616301629
0	10857	220	15.616301629
0	10858	220	15.616301629
0	10910	221	16.538449295
0	10911	221	16.538449295
0	10955	222	17.538449295
0	10956	222	17.538449295
0	11000	223	17.903109513
0	11001	223	17.903109513
0	11017	224	18.903109513
0	11018	224	18.903109513
0	11051	225	19.850177933
0	11052	225	19.850177933
0	11090	226	20.850177933
0	11091	226	20.850177933
0	11127	227	20.524241271
0	11128	227	20.524241271
0	11172	228	21.524241271
0	11173	228	21.524241271
0	11229	229	19.116807942
0	11230	229	19.116807942
0	11285	230	20.116807942
0	11286	230	20.116807942
0	11340	231	19.621194904
0	11341	231	19.621194904
0	11409	232	20.621194904
0	11410	232	20.621194904
0	11499	233	20.215388842
0	11573	234	21.215388842
0	11629	235	22.215388842
0	11685	236	23.215388842
0	11686	236	22.475720824
0	11732	237	23.475720824
0	11733	237	23.475720824
0	11770	238	24.475720824
0	11771	238	24.148563485
0	11816	239	25.148563485
0	11817	239	25.148563485
0	11881	240	26.148563485
0	11919	241	24.009141331
0	11920	241	24.009141331
0	11947	242	25.009141331
0	11948	242	25.009141331
0	11998	243	20.352864322
0	12052	244	21.352864322
0	12053	244	21.352864322
0	12147	245	22.352864322
0	12148	245	18.234774314
0	12191	246	19.234774314
0	12192	246	19.234774314
0	12223	247	20.234774314
0	12224	247	19.657894722
0	12247	248	20.657894722
0	12248	248	20.657894722
0	12295	249	21.657894722
0	12296	249	20.954380386
0	12356	250	21.954380386
0	12420	251	22.954380386
0	12421	251	22.954380386
0	12462	252	23.148954469
0	12463	252	23.148954469
0	12523	253	24.148954469
0	12524	253	24.148954469
0	12568	254	21.566153014
0	12569	254	21.566153014
0	12638	255	22.566153014
0	12639	255	22.566153014
0	12676	256	23.13207333
0	12677	256	23.13207333
0	12712	257	24.13207333
0	12713	257	24.13207333
0	12754	258	22.544849755
0	12755	258	22.544849755
0	12805	259	23.544849755
0	12806	259	23.544849755
0	12851	260	23.416506588
0	12852	260	23.416506588
0	12921	261	24.416506588
0	12922	261	24.416506588
0	13013	262	22.053550975
0	13014	262	22.053550975
0	13069	263	23.053550975
0	13070	263	23.053550975
0	13095	264	23.342273896
0	13096	264	23.342273896
0	13164	265	24.342273896
0	13165	265	24.342273896
0	13197	266	22.546329029
0	13198	266	22.546329029
0	13238	267	23.546329029
0	13239	267	23.546329029
0	13298	268	22.556444607
0	13299	268	22.556444607
0	13344	269	23.556444607
0	13345	269	23.556444607
0	13414	270	20.846575939
0	13415	270	20.846575939
0	13470	271	21.846575939
0	13471	271	21.846575939
0	13535	272	21.463747886
0	13536	272	21.463747886
0	13592	273	22.463747886
0	13593	273	22.463747886
0	13658	274	21.911296733
0	13659	274	21.911296733
0	13714	275	22.911296733
0	13715	275	22.911296733
0	13769	276	20.034367537
0	13770	276	20.034367537
0	13825	277	21.034367537
0	13826	277	21.034367537
0	13889	278	17.09051269
0	13890	278	17.09051269
0	13923	279	18.09051269
0	13924	279	18.09051269
0	13973	280	18.125156626
0	13974	280	18.125156626
0	14015	281	19.125156626
0	14016	281	19.125156626
0	14045	282	19.711895261
0	14046	282	19.711895261
0	14102	283	20.711895261
0	14103	283	20.711895261
0	14167	284	12.306983946
0	14168	284	12.306983946
0	14233	285	13.306983946
0	14289	286	14.306983946
0	14290	286	13.844392509
0	14333	287	14.844392509
0	14334	287	14.844392509
0	14385	288	15.844392509
0	14386	288	11.786391318
0	14407	289	12.786391318
0	14408	289	12.786391318
0	14447	290	13.786391318
0	14448	290	10.058589528
0	14493	291	11.058589528
0	14494	291	11.058589528
0	14544	292	12.058589528
0	14545	292	10.107343555
0	14604	293	11.107343555
0	14605	293	11.107343555
0	14628	294	12.107343555
0	14629	294	9.6875552
0	14664	295	10.6875552
0	14665	295	10.6875552
0	14712	296	11.6875552
0	14713	296	8.888068014
0	14757	297	9.888068014
0	14758	297	9.888068014
0	14809	298	10.888068014
0	14810	298	10.151926323
0	14826	299	11.151926323
0	14827	299	11.151926323
0	14886	300	12.151926323
0	14887	300	8.680818146
0	14910	301	9.680818146
0	14911	301	9.680818146
0	14963	302	10.680818146
0	14964	302	9.642624029
0	15006	303	10.642624029
0	15007	303	10.642624029
0	15030	304	11.642624029
0	15031	304	9.254548531
0	15065	305	10.254548531
0	15066	305	10.254548531
0	15100	306	11.254548531
0	15101	306	9.324365921
0	15140	307	10.324365921
0	15141	307	10.324365921
0	15164	308	11.324365921
0	15165	308	10.360820372
0	15198	309	11.360820372
0	15199	309	11.360820372
0	15218	310	12.360820372
0	15219	310	10.898415091
0	15241	311	11.898415091
0	15242	311	11.898415091
0	15285	312	12.898415091
0	15286	312	12.340934043
0	15327	313	13.340934043
0	15328	313	13.340934043
0	15347	314	14.340934043
0	15348	314	14.191799788
0	15391	315	15.191799788
0	15392	315	15.191799788
0	15444	316	16.191799788
0	15445	316	15.330679023
0	15490	317	16.330679023
0	15491	317	16.330679023
0	15523	318	17.330679023
0	15524	318	14.805083374
0	15559	319	15.805083374
0	15560	319	15.805083374
0	15624	320	16.805083374
0	15625	320	13.799015751
0	15668	321	14.799015751
0	15669	321	14.799015751
0	15708	322	15.799015751
0	15709	322	14.501982023
0	15761	323	15.501982023
0	15762	323	15.501982023
0	15814	324	16.501982023
0	15815	324	15.022178639
0	15861	325	16.022178639
0	15862	325	16.022178639
0	15903	326	17.022178639
0	15904	326	11.700639899
0	15938	327	12.700639899
0	15939	327	12.700639899
0	15982	328	13.700639899
0	15983	328	8.739233971
0	16021	329	9.739233971
0	16022	329	9.739233971
0	16069	330	10.739233971
0	16070	330	7.997659048
0	16116	331	8.997659048
0	16117	331	8.997659048
0	16155	332	9.997659048
0	16156	332	9.326383227
0	16243	333	10.326383227
0	16244	333	10.326383227
0	16298	334	11.326383227
0	16299	334	9.117325493
0	16363	335	10.117325493
0	16364	335	10.117325493
0	16391	336	11.117325493
0	16392	336	7.665490771
0	16423	337	8.665490771
0	16424	337	8.665490771
0	16465	338	9.665490771
0	16466	338	8.400233567
0	16522	339	9.400233567
0	16523	339	9.400233567
0	16546	340	10.400233567
0	16547	340	9.954617902
0	16594	341	10.954617902
0	16595	341	10.954617902
0	16625	342	11.954617902
0	16626	342	9.472624949
0	16664	343	10.472624949
0	16665	343	10.472624949
0	16713	344	11.472624949
0	16714	344	9.206862392
0	16777	345	10.206862392
0	16843	346	11.206862392
0	16844	346	11.206862392
0	16888	347	3.547472108
0	16889	347	3.547472108
0	16946	348	4.547472108
0	16947	348	4.547472108
0	17008	349	4.444203443
0	17009	349	4.444203443
0	17063	350	5.444203443
0	17064	350	5.444203443
0	17285	355	0.268637194
0	17286	355	0.268637194
0	17287	355	0.268637194
0	17338	356	1.268637194
0	17568	360	0.770371759
0	17569	360	0.770371759
0	17570	360	0.770371759
0	17596	361	1.770371759
0	17597	361	1.023882565
0	17598	361	1.023882565
0	17615	362	2.023882565
0	17616	362	2.023882565
0	17732	365	0.41389583
0	17733	365	0.41389583
0	17761	366	1.41389583
0	17762	366	1.41389583
0	17784	367	2.156259676
0	17785	367	2.156259676
0	17819	368	3.156259676
0	17820	368	3.156259676
0	17891	369	3.766846093
0	17936	370	4.766846093
0	17937	370	4.766846093
0	17991	371	5.766846093
0	17992	371	1.602067033
0	18061	372	2.602067033
0	18062	372	2.602067033
0	18095	373	3.602067033
0	18255	378	0.795325146
0	18256	378	0.795325146
0	18257	378	0.795325146
0	18292	379	1.795325146
0	18293	379	0.176733981
0	18346	380	1.176733981
0	18428	381	2.176733981
0	18429	381	2.176733981
0	18500	382	1.706453085
0	18501	382	1.706453085
0	18525	383	2.706453085
0	18526	383	2.706453085
0	18564	384	2.190910004
0	18565	384	2.190910004
0	18618	385	3.190910004
0	18619	385	3.190910004
0	18646	386	1.848581867
0	18647	386	1.848581867
0	18697	387	2.848581867
0	18698	387	2.848581867
0	18721	388	1.059647324
0	18722	388	1.059647324
0	18757	389	2.059647324
0	18758	389	2.059647324
0	18796	391	0.974573068
0	18797	391	0.974573068
0	18836	392	1.974573068
0	18837	392	1.974573068
0	18922	393	1.570050092
0	18923	393	1.570050092
0	18972	394	2.570050092
0	18973	394	2.570050092
0	19030	395	2.730756554
0	19031	395	2.730756554
0	19083	396	3.730756554
0	19084	396	3.730756554
0	19131	397	3.948258938
0	19132	397	3.948258938
0	19167	398	4.948258938
0	19168	398	4.948258938
0	19223	399	4.445328214
0	19224	399	4.445328214
0	19284	400	5.445328214
0	19285	400	5.445328214
0	19311	401	6.336781447
0	19312	401	6.336781447
0	19349	402	7.336781447
0	19350	402	7.336781447
0	19369	403	5.477738935
0	19370	403	5.477738935
0	19403	404	6.477738935
0	19404	404	6.477738935
0	19470	405	6.965963956
0	19533	406	7.965963956
0	19534	406	7.965963956
0	19569	407	8.965963956
0	19570	407	1.813860106
0	19641	408	2.813860106
0	19642	408	2.813860106
0	19700	409	3.813860106
0	19820	411	0.775921654
0	19821	411	0.775921654
0	19863	412	1.775921654
0	19864	412	1.775921654
0	19942	413	2.329082429
0	19943	413	2.329082429
0	19988	414	3.329082429
0	19989	414	3.329082429
0	20039	415	2.980034652
0	20040	415	2.980034652
0	20082	416	3.980034652
0	20083	416	3.980034652
0	20126	417	1.398348204
0	20127	417	1.398348204
0	20204	418	2.398348204
0	20205	418	2.398348204
0	20237	419	1.7774381
0	20238	419	1.7774381
0	20271	420	2.7774381
0	20272	420	2.7774381
0	20315	421	3.095491104
0	20316	421	3.095491104
0	20340	422	4.095491104
0	20341	422	4.095491104
0	20396	423	2.615828839
0	20397	423	2.615828839
0	20460	424	3.615828839
0	20461	424	3.615828839
0	20515	425	2.71581552
0	20516	425	2.71581552
0	20549	426	3.71581552
0	20550	426	3.71581552
0	20585	427	4.083875376
0	20586	427	4.083875376
0	20667	428	5.083875376
0	20668	428	5.083875376
0	20721	429	1.99925479
0	20722	429	1.99925479
0	20795	430	2.99925479
0	20796	430	2.99925479
0	20850	431	1.779132928
0	20851	431	1.779132928
0	20895	432	2.779132928
0	20896	432	2.779132928
0	20958	433	3.215922305
0	20959	433	3.215922305
0	21022	434	4.215922305
0	21023	434	4.215922305
0	21235	439	0.021247747
0	21236	439	0.021247747
0	21237	439	0.021247747
0	21238	439	0.021247747
0	21405	444	0.315844392
0	21406	444	0.315844392
0	21407	444	0.315844392
0	21468	445	1.315844392
0	21569	447	0.605818882
0	21570	447	0.605818882
0	21614	448	1.605818882
0	21615	448	1.605818882
0	21747	452	0.879156164
0	21748	452	0.879156164
0	21749	452	0.879156164
0	21750	452	0.879156164
0	21856	454	0.983246845
0	21857	454	0.983246845
0	21858	454	0.983246845
0	21921	455	1.983246845
0	21922	455	0.617502825
0	21966	456	1.617502825
0	21967	456	1.617502825
0	21990	457	2.617502825
0	22036	458	0.962776391
0	22037	458	0.962776391
0	22078	459	1.962776391
0	22079	459	1.962776391
0	22108	460	2.611411597
0	22109	460	2.611411597
0	22167	461	3.611411597
0	22168	461	3.611411597
0	22211	462	3.897449348
0	22212	462	3.897449348
0	22242	463	4.897449348
0	22243	463	4.897449348
0	22320	465	0.703587579
0	22321	465	0.703587579
0	22322	465	0.703587579
0	22345	466	1.703587579
0	22429	469	0.742622747
0	22430	469	0.742622747
0	22431	469	0.742622747
0	22477	470	1.742622747
0	22478	470	0.871151971
0	22522	471	1.871151971
0	22523	471	1.871151971
0	22573	472	2.871151971
0	22574	472	1.567014601
0	22618	473	2.567014601
0	22619	473	2.567014601
0	22653	474	3.567014601
0	22654	474	2.822722943
0	22705	475	3.822722943
0	22759	476	4.822722943
0	22760	476	4.822722943
0	22804	477	5.263296015
0	22805	477	5.263296015
0	22872	478	6.263296015
0	22873	478	6.263296015
0	22936	479	6.210018398
0	22937	479	6.210018398
0	22966	480	7.210018398
0	22967	480	7.210018398
0	23013	481	7.876771428
0	23014	481	7.876771428
0	23034	482	8.876771428
0	23035	482	8.876771428
0	23064	483	5.085632189
0	23065	483	5.085632189
0	23108	484	6.085632189
0	23109	484	6.085632189
0	23152	485	5.350075483
0	23153	485	5.350075483
0	23214	486	6.350075483
0	23215	486	6.350075483
0	23239	487	6.50306168
0	23240	487	6.50306168
0	23283	488	7.50306168
0	23284	488	7.50306168
0	23304	489	4.323787447
0	23305	489	4.323787447
0	23339	490	5.323787447
0	23340	490	5.323787447
0	23383	491	3.056137806
0	23384	491	3.056137806
0	23432	492	4.056137806
0	23433	492	4.056137806
0	23494	493	3.295324271
0	23495	493	3.295324271
0	23549	494	4.295324271
0	23550	494	4.295324271
0	23594	495	4.474330111
0	23595	495	4.474330111
0	23634	496	5.474330111
0	23635	496	5.474330111
0	23688	497	4.875651264
0	23689	497	4.875651264
0	23740	498	5.875651264
0	23741	498	5.875651264
0	23778	499	5.00619794
0	23779	499	5.00619794
0	23812	500	6.00619794
0	23813	500	6.00619794
0	23854	501	6.542694934
0	23855	501	6.542694934
0	23905	502	7.542694934
0	23906	502	7.542694934
0	23948	503	7.425672149
0	23949	503	7.425672149
0	23972	504	8.425672149
0	23973	504	8.425672149
0	24009	505	8.665359798
0	24010	505	8.665359798
0	24048	506	9.665359798
0	24049	506	9.665359798
0	24096	507	5.122911679
0	24097	507	5.122911679
0	24121	508	6.122911679
0	24122	508	6.122911679
0	24190	509	2.818667399
0	24191	509	2.818667399
0	24256	510	3.818667399
0	24257	510	3.818667399
0	24311	511	2.094599467
0	24312	511	2.094599467
0	24391	512	3.094599467
0	24392	512	3.094599467
0	24428	513	1.677138365
0	24429	513	1.677138365
0	24472	514	2.677138365
0	24473	514	2.677138365
0	24500	515	3.566551458
0	24501	515	3.566551458
0	24540	516	4.566551458
0	24541	516	4.566551458
0	24583	517	1.533432212
0	24584	517	1.533432212
0	24636	518	2.533432212
0	24637	518	2.533432212
0	24719	519	0.231141992
0	24720	519	0.231141992
0	24793	520	1.231141992
0	24794	520	1.231141992
0	24830	521	1.086936692
0	24831	521	1.086936692
0	24850	522	2.086936692
0	24851	522	2.086936692
0	24903	523	0.373804499
0	24904	523	0.373804499
0	24938	524	1.373804499
0	24939	524	1.373804499
0	25072	526	0.984773727
0	25073	526	0.984773727
0	25114	527	1.984773727
0	25115	527	1.984773727
0	25143	528	2.947837645
0	25144	528	2.947837645
0	25202	529	3.947837645
0	25203	529	3.947837645
0	25259	530	4.481633853
0	25260	530	4.481633853
0	25295	531	5.481633853
0	25296	531	5.481633853
0	25329	532	3.470003199
0	25330	532	3.470003199
0	25396	533	4.470003199
0	25397	533	4.470003199
0	25449	534	5.037064984
0	25450	534	5.037064984
0	25501	535	6.037064984
0	25502	535	6.037064984
0	25535	536	6.82804933
0	25536	536	6.82804933
0	25585	537	7.82804933
0	25586	537	7.82804933
0	25643	538	5.428039512
0	25644	538	5.428039512
0	25696	539	6.428039512
0	25733	540	7.428039512
0	25734	540	1.915252299
0	25770	541	2.915252299
0	25771	541	2.915252299
0	25810	542	3.915252299
0	25864	543	0.666181139
0	25865	543	0.666181139
0	25889	544	1.666181139
0	25890	544	1.666181139
0	26002	547	0.701232944
0	26003	547	0.701232944
0	26004	547	0.701232944
0	26032	548	1.701232944
0	26102	549	0.946336611
0	26103	549	0.946336611
0	26150	550	1.946336611
0	26151	550	1.946336611
0	26243	552	0.102771559
0	26244	552	0.102771559
0	26245	552	0.102771559
0	26286	553	1.102771559
0	26617	559	0.850047078
0	26618	559	0.850047078
0	26619	559	0.850047078
0	26620	559	0.850047078
0	26673	560	0.170479403
0	26674	560	0.170479403
0	26719	561	1.170479403
0	26720	561	1.170479403
0	26876	565	0.240335344
0	26877	565	0.240335344
0	26878	565	0.240335344
0	26937	566	1.240335344
0	27549	581	0.076170221
0	27550	581	0.076170221
0	27551	581	0.076170221
0	27552	581	0.076170221
0	27623	583	0.132587758
0	27624	583	0.132587758
0	27625	583	0.132587758
0	27653	584	1.132587758
0	27711	585	0.363178411
0	27712	585	0.363178411
0	27746	586	1.363178411
0	27747	586	1.363178411
0	27785	587	0.255130086
0	27786	587	0.255130086
0	27815	588	1.255130086
0	27816	588	1.255130086
0	27871	589	0.505340443
0	27872	589	0.505340443
0	27929	590	1.505340443
0	27995	591	2.505340443
0	28097	592	3.476696835
0	28189	593	4.476696835
0	28190	593	4.476696835
0	28245	594	5.476696835
0	28328	596	0.794700334
0	28329	596	0.794700334
0	28361	597	1.794700334
0	28362	597	1.794700334
0	28594	602	0.478618619
0	28595	602	0.478618619
0	28596	602	0.478618619
0	28597	602	0.478618619
0	28662	603	0.837519398
0	28708	604	1.837519398
0	28709	604	1.837519398
0	28767	605	2.837519398
0	28768	605	0.657692157
0	28800	606	1.657692157
0	28801	606	1.657692157
0	28855	607	2.657692157
0	28856	607	2.160129805
0	28902	608	3.160129805
0	28903	608	3.160129805
0	28945	609	4.160129805
0	28946	609	3.784510553
0	29042	610	4.784510553
0	29043	610	4.784510553
0	29089	611	5.784510553
0	29090	611	4.915887009
0	29145	612	5.915887009
0	29146	612	5.915887009
0	29181	613	6.915887009
0	29182	613	6.550451888
0	29242	614	7.550451888
0	29243	614	7.550451888
0	29280	615	8.550451888
0	29281	615	7.131978783
0	29335	616	8.131978783
0	29336	616	8.131978783
0	29387	617	9.131978783
0	29388	617	8.102375786
0	29421	618	9.102375786
0	29422	618	9.102375786
0	29448	619	10.102375786
0	29449	619	8.326592106
0	29496	620	9.326592106
0	29497	620	9.326592106
0	29587	621	10.326592106
0	29588	621	7.84474438
0	29633	622	8.84474438
0	29634	622	8.84474438
0	29692	623	9.84474438
0	29693	623	9.779557411
0	29756	624	10.779557411
0	29757	624	10.779557411
0	29790	625	11.779557411
0	29791	625	8.185171199
0	29837	626	9.185171199
0	29838	626	9.185171199
0	29884	627	10.185171199
0	29885	627	6.415888265
0	29928	628	7.415888265
0	29929	628	7.415888265
0	29967	629	8.415888265
0	29968	629	7.183271518
0	30016	630	8.183271518
0	30017	630	8.183271518
0	30089	631	9.183271518
0	30090	631	8.692975244
0	30142	632	9.692975244
0	30143	632	9.692975244
0	30215	633	10.692975244
0	30216	633	7.079401617
0	30261	634	8.079401617
0	30262	634	8.079401617
0	30304	635	9.079401617
0	30305	635	7.603048501
0	30354	636	8.603048501
0	30355	636	8.603048501
0	30416	637	9.603048501
0	30417	637	7.377622994
0	30464	638	8.377622994
0	30465	638	8.377622994
0	30520	639	9.377622994
0	30521	639	5.545469426
0	30594	640	6.545469426
0	30595	640	6.545469426
0	30659	641	7.545469426
0	30743	642	5.690154986
0	30809	643	6.690154986
0	30810	643	6.690154986
0	30835	644	7.690154986
0	30836	644	3.700850326
0	30882	645	4.700850326
0	30883	645	4.700850326
0	30906	646	5.700850326
0	30907	646	1.781111976
0	30955	647	2.781111976
0	31012	648	3.781111976
0	31013	648	3.781111976
0	31049	649	4.240150489
0	31050	649	4.240150489
0	31070	650	5.240150489
0	31071	650	5.240150489
0	31126	651	0.896712697
0	31127	651	0.896712697
0	31169	652	1.896712697
0	31170	652	1.896712697
0	31221	653	0.852299368
0	31222	653	0.852299368
0	31263	654	1.852299368
0	31264	654	1.852299368
0	31323	655	2.153966059
0	31324	655	2.153966059
0	31372	656	3.153966059
0	31373	656	3.153966059
0	31420	657	3.788384365
0	31421	657	3.788384365
0	31457	658	4.788384365
0	31458	658	4.788384365
0	31515	659	4.793833458
0	31516	659	4.793833458
0	31575	660	5.793833458
0	31576	660	5.793833458
0	31650	661	4.53277921
0	31651	661	4.53277921
0	31725	662	5.53277921
0	31726	662	5.53277921
0	31780	663	5.682422684
0	31781	663	5.682422684
0	31812	664	6.682422684
0	31813	664	6.682422684
0	31872	665	6.774354816
0	31873	665	6.774354816
0	31937	666	7.774354816
0	31938	666	7.774354816
0	31984	667	7.818927175
0	31985	667	7.818927175
0	32012	668	8.818927175
0	32013	668	8.818927175
0	32065	669	8.471617846
0	32066	669	8.471617846
0	32102	670	9.471617846
0	32103	670	9.471617846
0	32122	671	10.381154501
0	32123	671	10.381154501
0	32146	672	11.381154501
0	32147	672	11.381154501
0	32191	673	11.018218477
0	32192	673	11.018218477
0	32247	674	12.018218477
0	32248	674	12.018218477
0	32293	675	9.753984274
0	32294	675	9.753984274
0	32347	676	10.753984274
0	32348	676	10.753984274
0	32426	677	8.687132313
0	32427	677	8.687132313
0	32490	678	9.687132313
0	32491	678	9.687132313
0	32514	679	9.956789617
0	32515	679	9.956789617
0	32555	680	10.956789617
0	32556	680	10.956789617
0	32588	681	4.160228443
0	32589	681	4.160228443
0	32616	682	5.160228443
0	32617	682	5.160228443
0	32635	683	5.589585106
0	32636	683	5.589585106
0	32698	684	6.589585106
0	32699	684	6.589585106
0	32728	685	1.172171922
0	32729	685	1.172171922
0	32786	686	2.172171922
0	32787	686	2.172171922
0	32857	687	1.460712436
0	32858	687	1.460712436
0	32900	688	2.460712436
0	32901	688	2.460712436
0	32968	689	2.439469205
0	33015	690	3.439469205
0	33016	690	3.439469205
0	33070	691	4.439469205
0	33071	691	3.990524863
0	33108	692	4.990524863
0	33109	692	4.990524863
0	33144	693	5.990524863
0	33145	693	4.197915993
0	33192	694	5.197915993
0	33193	694	5.197915993
0	33251	695	6.197915993
0	33297	696	0.998325905
0	33298	696	0.998325905
0	33320	697	1.998325905
0	33321	697	1.998325905
0	33481	700	0.309692876
0	33482	700	0.309692876
0	33483	700	0.309692876
0	33536	701	1.309692876
0	33595	702	0.873028407
0	33596	702	0.873028407
0	33631	703	1.873028407
0	33632	703	1.873028407
0	33659	704	2.18929249
0	33660	704	2.18929249
0	33695	705	3.18929249
0	33696	705	3.18929249
0	33740	706	4.042685917
0	33741	706	4.042685917
0	33777	707	5.042685917
0	33778	707	5.042685917
0	33852	708	4.828857747
0	33935	709	5.828857747
0	33981	710	6.828857747
0	33982	710	6.828857747
0	34033	711	6.405480006
0	34034	711	6.405480006
0	34077	712	7.405480006
0	34078	712	7.405480006
0	34111	713	6.59205658
0	34112	713	6.59205658
0	34139	714	7.59205658
0	34140	714	7.59205658
0	34163	715	7.764700566
0	34164	715	7.764700566
0	34208	716	8.764700566
0	34244	717	9.764700566
0	34245	717	4.313930075
0	34312	718	5.313930075
0	34313	718	5.313930075
0	34366	719	6.313930075
0	34367	719	5.849279943
0	34395	720	6.849279943
0	34396	720	6.849279943
0	34446	721	7.849279943
0	34447	721	2.169360041
0	34534	722	3.169360041
0	34535	722	3.169360041
0	34581	723	4.169360041
0	34582	723	1.773314638
0	34628	724	2.773314638
0	34721	725	3.773314638
0	34805	726	4.773314638
0	34806	726	4.045141712
0	34870	727	5.045141712
0	34954	728	6.045141712
0	35020	729	7.045141712
0	35021	729	6.529153066
0	35103	730	7.529153066