file 3971150 1741534712                                         
version 3
run Sched1-0-20250309-17:38:06-14152
attr configname Sched1
attr datetime 20250309-17:38:06
attr datetimef 20250309-173806
attr experiment Sched1
attr inifile omnetpp.ini
attr iterationvars ""
attr iterationvarsd ""
attr iterationvarsf ""
attr measurement ""
attr network RadioSch2
attr processid 14152
attr repetition 0
attr replication #0
attr resultdir results
attr runnumber 0
attr seedset 0
config description "low job arrival rate"
config *.scalar-recording true
config *.vector-recording true
config **.user[*].generator.sendIaTime "0.2 ms"
config *.user[*].generator.networkLoad 0.8
config *.user[*].generator.packetsPerUser 4
config *.user[*].generator.channels 14
config *.user[*].generator.usersCount 7
config *.user[*].generator.MAX_Sim "10 s"
config *.usersCount 7
config network RadioSch2
config sim-time-limit 100h
config cpu-time-limit 300s
config simtime-resolution ns
config record-eventlog true

vector 0 RadioSch2.sink lifetime_user0:vector ETV
attr interpolationmode none
attr recordingmode vector
attr title "User 0 Packet Lifetime"
attr unit s
vector 1 RadioSch2.sink lifetime_user1:vector ETV
attr interpolationmode none
attr recordingmode vector
attr title "User 1 Packet Lifetime"
attr unit s
vector 2 RadioSch2.sink lifetime_user2:vector ETV
attr interpolationmode none
attr recordingmode vector
attr title "User 2 Packet Lifetime"
attr unit s
vector 3 RadioSch2.sink lifetime_user3:vector ETV
attr interpolationmode none
attr recordingmode vector
attr title "User 3 Packet Lifetime"
attr unit s
vector 4 RadioSch2.sink lifetime_user4:vector ETV
attr interpolationmode none
attr recordingmode vector
attr title "User 4 Packet Lifetime"
attr unit s
vector 5 RadioSch2.sink lifetime_user5:vector ETV
attr interpolationmode none
attr recordingmode vector
attr title "User 5 Packet Lifetime"
attr unit s
vector 6 RadioSch2.sink lifetime_user6:vector ETV
attr interpolationmode none
attr recordingmode vector
attr title "User 6 Packet Lifetime"
attr unit s
vector 7 RadioSch2.flc "delay vector" ETV
vector 8 RadioSch2.flc "result nescalat" ETV
vector 9 RadioSch2.flc "res scalat" ETV
vector 10 RadioSch2.flc "weight vector" ETV
0	2233 430897 95 496964 1 10000 16120 0.001943467 32.501477412 95438.00475768 1064334.8905312
1	433130 443189 97 496967 1 10000 16484 0.002018077 60.913867507 148213.69476688 2834961.7120649
2	876319 419001 99 496970 1 10000 15778 0.000139547 8.967370444 15338.50136924 28854.480368014
3	1295320 424310 102 496973 1 10000 15980 0.000141634 8.917424559 16783.991829228 34218.065044686
4	1719630 430705 104 496285 1 9983 16224 0.000240321 10.211165853 18685.89340368 42068.090495211
5	2150335 438049 106 496976 1 10000 16267 0.004428608 54.823357215 158805.16050186 2999090.2185902
6	2588384 440199 111 496750 1 9996 16240 0.002927217 57.485453536 253898.308461 6842816.216671
7	3028583 412564 10 496962 0 10000 20002 -49892 1500 -142657601 2652919303233
8	3441147 166667 10 496962 0 10000 10001 1 64 10127 18191
9	3607814 186665 10 496962 0 10000 10001 -15 15 -149955 2250225
10	3794479 176669 10 496962 0 10000 10001 1 29 10066 11660

