file 1640955 1741526458                                         
version 3
run Sched1-0-20250309-15:19:05-13300
attr configname Sched1
attr datetime 20250309-15:19:05
attr datetimef 20250309-151905
attr experiment Sched1
attr inifile omnetpp.ini
attr iterationvars ""
attr iterationvarsd ""
attr iterationvarsf ""
attr measurement ""
attr network RadioSch2
attr processid 13300
attr repetition 0
attr replication #0
attr resultdir results
attr runnumber 0
attr seedset 0
config description "low job arrival rate"
config *.scalar-recording true
config *.vector-recording true
config **.user[*].generator.sendIaTime "0.2 ms"
config *.user[*].generator.networkLoad 0.8
config *.user[*].generator.packetsPerUser 4
config *.user[*].generator.channels 14
config *.user[*].generator.usersCount 7
config *.user[*].generator.MAX_Sim "10 s"
config *.usersCount 7
config network RadioSch2
config sim-time-limit 100h
config cpu-time-limit 300s
config simtime-resolution ns
config record-eventlog true

vector 0 RadioSch2.sink lifetime_user0:vector ETV
attr interpolationmode none
attr recordingmode vector
attr title "User 0 Packet Lifetime"
attr unit s
vector 1 RadioSch2.sink lifetime_user1:vector ETV
attr interpolationmode none
attr recordingmode vector
attr title "User 1 Packet Lifetime"
attr unit s
vector 2 RadioSch2.sink lifetime_user2:vector ETV
attr interpolationmode none
attr recordingmode vector
attr title "User 2 Packet Lifetime"
attr unit s
vector 3 RadioSch2.sink lifetime_user3:vector ETV
attr interpolationmode none
attr recordingmode vector
attr title "User 3 Packet Lifetime"
attr unit s
vector 4 RadioSch2.sink lifetime_user4:vector ETV
attr interpolationmode none
attr recordingmode vector
attr title "User 4 Packet Lifetime"
attr unit s
vector 5 RadioSch2.sink lifetime_user5:vector ETV
attr interpolationmode none
attr recordingmode vector
attr title "User 5 Packet Lifetime"
attr unit s
vector 6 RadioSch2.sink lifetime_user6:vector ETV
attr interpolationmode none
attr recordingmode vector
attr title "User 6 Packet Lifetime"
attr unit s
vector 7 RadioSch2.flc "delay vector" ETV
vector 8 RadioSch2.flc "result nescalat" ETV
vector 9 RadioSch2.flc "res scalat" ETV
vector 10 RadioSch2.flc "weight vector" ETV
7	2233 26 10 10 0 0 2 1100 1500 2600 3460000
8	2259 11 10 10 0 0 1 32 32 32 1024
9	2270 10 10 10 0 0 1 0 0 0 0
10	2280 12 10 10 0 0 1 10 10 10 100
0	2292 180585 95 209902 1 4221 6894 0.006317062 27.242927597 30474.399826788 263204.91668709
1	182877 179023 97 209906 1 4221 6817 0.004547179 26.039893263 35201.53254802 339203.86966563
2	361900 171888 99 209861 1 4220 6588 0.000679617 5.060246466 4662.754700852 5467.4125012314
3	533788 175593 101 209866 1 4220 6732 0.000710952 5.339035791 5305.824540188 7262.2026472522
4	709381 182992 103 209909 1 4221 6961 0.015078235 31.929462609 44049.543820626 444702.86353104
5	892373 177974 108 209912 1 4221 6749 0.004428608 35.493520209 51018.085677483 709423.29762831
6	1070347 181112 113 209915 1 4221 6843 0.002927217 54.984343033 74637.496628793 1520921.4561461
7	1251459 171577 94 209899 1 4221 8442 -47648 1500 -56173194 701460108360
8	1423036 72639 94 209899 1 4221 4221 16 32 67552 1081344
9	1495675 72638 94 209899 1 4221 4221 -7 0 -29540 206780
10	1568313 72640 94 209899 1 4221 4221 1 10 4232 4328

