file 19528 1740846251                                           
version 3
run Sched1-0-20250301-18:23:06-1124
attr configname Sched1
attr datetime 20250301-18:23:06
attr datetimef 20250301-182306
attr experiment Sched1
attr inifile omnetpp.ini
attr iterationvars ""
attr iterationvarsd ""
attr iterationvarsf ""
attr measurement ""
attr network RadioSch2
attr processid 1124
attr repetition 0
attr replication #0
attr resultdir results
attr runnumber 0
attr seedset 0
config description "low job arrival rate"
config *.scalar-recording true
config *.vector-recording true
config **.user[*].generator.sendIaTime "0.2 ms"
config *.user[*].generator.networkLoad 0.5
config *.user[*].generator.packetsPerUser 4
config *.user[*].generator.channels 14
config *.user[*].generator.usersCount 7
config *.user[*].generator.MAX_Sim "10 s"
config *.usersCount 7
config network RadioSch2
config sim-time-limit 100h
config cpu-time-limit 300s
config simtime-resolution ns
config record-eventlog true

vector 0 RadioSch2.sink lifetime_user0:vector ETV
attr interpolationmode none
attr recordingmode vector
attr title "User 0 Packet Lifetime"
attr unit s
vector 1 RadioSch2.sink lifetime_user1:vector ETV
attr interpolationmode none
attr recordingmode vector
attr title "User 1 Packet Lifetime"
attr unit s
vector 2 RadioSch2.sink lifetime_user2:vector ETV
attr interpolationmode none
attr recordingmode vector
attr title "User 2 Packet Lifetime"
attr unit s
vector 3 RadioSch2.sink lifetime_user3:vector ETV
attr interpolationmode none
attr recordingmode vector
attr title "User 3 Packet Lifetime"
attr unit s
vector 4 RadioSch2.sink lifetime_user4:vector ETV
attr interpolationmode none
attr recordingmode vector
attr title "User 4 Packet Lifetime"
attr unit s
vector 5 RadioSch2.sink lifetime_user5:vector ETV
attr interpolationmode none
attr recordingmode vector
attr title "User 5 Packet Lifetime"
attr unit s
vector 6 RadioSch2.sink lifetime_user6:vector ETV
attr interpolationmode none
attr recordingmode vector
attr title "User 6 Packet Lifetime"
attr unit s
vector 7 RadioSch2.flc "delay vector" ETV
vector 8 RadioSch2.flc "result nescalat" ETV
vector 9 RadioSch2.flc "res scalat" ETV
vector 10 RadioSch2.flc "weight vector" ETV
0	2231 1523 86 2618 1 84 70 0.105902312 4.905286538 109.227189268 254.32521905556
1	3754 1847 88 2552 1 82 84 0.077616523 4.766461324 129.73928202 299.09512600616
2	5601 2069 90 2621 1 84 94 0.172024604 5.033828723 168.566680436 453.73419206647
3	7670 1099 92 2564 1 82 52 0.004575517 3.080263452 54.254364044 100.26967421583
4	8769 1836 94 2566 1 82 84 0.06559158 4.025037555 72.41930616 110.91603051761
5	10605 2119 99 2503 1 81 96 0.028541351 3.347965068 73.374935436 92.125962269143
6	12724 2092 104 2610 1 83 96 0.12341388 4.989448494 139.96341242 333.2024428931
7	14816 1284 10 2616 0 84 85 0 1227 84049 86471995
8	16100 1142 10 2616 0 84 85 16 64 4576 279040
9	17242 1075 10 2616 0 84 85 -3 7 415 3445
10	18317 1209 10 2616 0 84 85 7 13 997 12205

