version 3
run Sched1-0-20250306-21:19:58-12896
attr configname Sched1
attr datetime 20250306-21:19:58
attr datetimef 20250306-211958
attr experiment Sched1
attr inifile omnetpp.ini
attr iterationvars ""
attr iterationvarsd ""
attr iterationvarsf ""
attr measurement ""
attr network RadioSch2
attr processid 12896
attr repetition 0
attr replication #0
attr resultdir results
attr runnumber 0
attr seedset 0
config description "low job arrival rate"
config *.scalar-recording true
config *.vector-recording true
config **.user[*].generator.sendIaTime "0.2 ms"
config *.user[*].generator.networkLoad 0.8
config *.user[*].generator.packetsPerUser 4
config *.user[*].generator.channels 14
config *.user[*].generator.usersCount 7
config *.user[*].generator.MAX_Sim "10 s"
config *.usersCount 7
config network RadioSch2
config sim-time-limit 100h
config cpu-time-limit 300s
config simtime-resolution ns
config record-eventlog true

vector 0 RadioSch2.sink lifetime_user0:vector ETV
attr interpolationmode none
attr recordingmode vector
attr title "User 0 Packet Lifetime"
attr unit s
vector 1 RadioSch2.sink lifetime_user1:vector ETV
attr interpolationmode none
attr recordingmode vector
attr title "User 1 Packet Lifetime"
attr unit s
vector 2 RadioSch2.sink lifetime_user2:vector ETV
attr interpolationmode none
attr recordingmode vector
attr title "User 2 Packet Lifetime"
attr unit s
vector 3 RadioSch2.sink lifetime_user3:vector ETV
attr interpolationmode none
attr recordingmode vector
attr title "User 3 Packet Lifetime"
attr unit s
vector 4 RadioSch2.sink lifetime_user4:vector ETV
attr interpolationmode none
attr recordingmode vector
attr title "User 4 Packet Lifetime"
attr unit s
vector 5 RadioSch2.sink lifetime_user5:vector ETV
attr interpolationmode none
attr recordingmode vector
attr title "User 5 Packet Lifetime"
attr unit s
vector 6 RadioSch2.sink lifetime_user6:vector ETV
attr interpolationmode none
attr recordingmode vector
attr title "User 6 Packet Lifetime"
attr unit s
vector 7 RadioSch2.flc "delay vector" ETV
vector 8 RadioSch2.flc "result nescalat" ETV
vector 9 RadioSch2.flc "res scalat" ETV
vector 10 RadioSch2.flc "weight vector" ETV
0	95	1	1
0	162	2	2
0	210	3	3
0	247	4	4
0	379	6	0.441188945
0	380	6	0.441188945
0	381	6	0.441188945
0	441	7	1.441188945
0	442	7	1.035847721
0	482	8	2.035847721
0	483	8	2.035847721
0	551	9	3.035847721
0	552	9	2.407242891
0	608	10	3.407242891
0	609	10	3.407242891
0	657	11	4.407242891
0	751	13	0.591365237
0	752	13	0.591365237
0	753	13	0.591365237
0	804	14	1.591365237
0	861	15	0.809906254
0	862	15	0.809906254
0	907	16	1.809906254
0	908	16	1.809906254
0	1097	20	0.499313261
0	1098	20	0.499313261
0	1099	20	0.499313261
0	1100	20	0.499313261
0	1163	21	0.238453745
0	1164	21	0.238453745
0	1220	22	1.238453745
0	1221	22	1.238453745
0	1267	23	0.747505259
0	1268	23	0.747505259
0	1303	24	1.747505259
0	1304	24	1.747505259
0	1350	25	0.052918049
0	1351	25	0.052918049
0	1410	26	1.052918049
0	1411	26	1.052918049
0	1525	28	0.64698041
0	1526	28	0.64698041
0	1571	29	1.64698041
0	1572	29	1.64698041
0	1658	31	0.604431672
0	1659	31	0.604431672
0	1695	32	1.604431672
0	1696	32	1.604431672
0	2115	41	0.479814575
0	2116	41	0.479814575
0	2117	41	0.479814575
0	2118	41	0.479814575
0	2216	43	0.851737745
0	2217	43	0.851737745
0	2218	43	0.851737745
0	2281	44	1.851737745
0	2498	49	0.982128341
0	2499	49	0.982128341
0	2500	49	0.982128341
0	2501	49	0.982128341
0	2559	50	0.721428508
0	2560	50	0.721428508
0	2601	51	1.721428508
0	2602	51	1.721428508
0	2662	53	0.520367623
0	2663	53	0.520367623
0	2711	54	1.520367623
0	2712	54	1.520367623
0	2847	57	0.675795837
0	2848	57	0.675795837
0	2890	58	1.675795837
0	2891	58	1.675795837
0	2922	59	2.642482725
0	2923	59	2.642482725
0	2947	60	3.642482725
0	2948	60	3.642482725
0	3219	66	0.493339398
0	3220	66	0.493339398
0	3221	66	0.493339398
0	3222	66	0.493339398
0	3336	69	0.618985929
0	3337	69	0.618985929
0	3411	70	1.618985929
0	3477	71	2.618985929
0	3621	74	0.053775955
0	3622	74	0.053775955
0	3623	74	0.053775955
0	3624	74	0.053775955
0	3944	80	0.812185271
0	3945	80	0.812185271
0	3946	80	0.812185271
0	3947	80	0.812185271
0	4008	81	0.714492807
0	4009	81	0.714492807
0	4048	82	1.714492807
0	4049	82	1.714492807
0	4152	84	0.863795615
0	4153	84	0.863795615
0	4154	84	0.863795615
0	4241	85	1.863795615
0	4306	86	1.683875396
0	4307	86	1.683875396
0	4351	87	2.683875396
0	4352	87	2.683875396
0	4385	88	3.567038142
0	4386	88	3.567038142
0	4436	89	4.567038142
0	4437	89	4.567038142
0	4493	90	4.63913384
0	4494	90	4.63913384
0	4548	91	5.63913384
0	4549	91	5.63913384
0	4599	92	5.788540791
0	4600	92	5.788540791
0	4637	93	6.788540791
0	4638	93	6.788540791
0	4661	94	5.967596858
0	4662	94	5.967596858
0	4689	95	6.967596858
0	4690	95	6.967596858
0	4745	96	6.700788823
0	4746	96	6.700788823
0	4779	97	7.700788823
0	4780	97	7.700788823
0	4821	98	2.817451903
0	4822	98	2.817451903
0	4899	99	3.817451903
0	4900	99	3.817451903
0	4952	100	4.755131664
0	4953	100	4.755131664
0	5010	101	5.755131664
0	5011	101	5.755131664
0	5082	102	3.748738302
0	5083	102	3.748738302
0	5126	103	4.748738302
0	5127	103	4.748738302
0	5153	104	3.769715565
0	5154	104	3.769715565
0	5182	105	4.769715565
0	5183	105	4.769715565
0	5224	106	4.602554706
0	5225	106	4.602554706
0	5289	107	5.602554706
0	5290	107	5.602554706
0	5368	108	6.141015024
0	5369	108	6.141015024
0	5430	109	7.141015024
0	5431	109	7.141015024
0	5478	110	2.347199868
0	5479	110	2.347199868
0	5480	110	2.347199868
0	5551	111	3.347199868
0	5552	111	3.085419184
0	5584	112	4.085419184
0	5585	112	4.085419184
0	5586	112	4.085419184
0	5650	113	2.114596283
0	5651	113	2.114596283
0	5686	114	3.114596283
0	5687	114	3.114596283
0	6082	123	0.298608291
0	6083	123	0.298608291
0	6084	123	0.298608291
0	6085	123	0.298608291
0	6158	125	0.881853391
0	6159	125	0.881853391
0	6160	125	0.881853391
0	6191	126	1.881853391
0	6302	129	0.570873677
0	6303	129	0.570873677
0	6304	129	0.570873677
0	6305	129	0.570873677
0	6431	133	0.862940157
0	6432	133	0.862940157
0	6433	133	0.862940157
0	6434	133	0.862940157
0	6494	134	0.657992133
0	6495	134	0.657992133
0	6564	135	1.657992133
0	6565	135	1.657992133
0	6612	136	1.024358984
0	6613	136	1.024358984
0	6682	137	2.024358984
0	6683	137	2.024358984
0	6716	138	1.731441666
0	6717	138	1.731441666
0	6791	139	2.731441666
0	6792	139	2.731441666
0	6889	141	0.410793234
0	6890	141	0.410793234
0	6891	141	0.410793234
0	6892	141	0.410793234
0	7019	143	0.55398386
0	7020	143	0.55398386
0	7021	143	0.55398386
0	7022	143	0.55398386
0	7090	144	0.751489715
0	7091	144	0.751489715
0	7140	145	1.751489715
0	7141	145	1.751489715
0	7186	146	2.609780012
0	7187	146	2.609780012
0	7256	147	3.609780012
0	7257	147	3.609780012
0	7294	148	2.55913253
0	7295	148	2.55913253
0	7296	148	2.55913253
0	7337	149	3.55913253
0	7478	152	0.008628588
0	7479	152	0.008628588
0	7480	152	0.008628588
0	7511	153	1.008628588
0	7668	157	0.483351059
0	7669	157	0.483351059
0	7670	157	0.483351059
0	7716	158	1.483351059
0	7887	161	0.775952648
0	7888	161	0.775952648
0	7889	161	0.775952648
0	7890	161	0.775952648
0	7957	163	0.507420348
0	7958	163	0.507420348
0	7988	164	1.507420348
0	7989	164	1.507420348
0	8294	170	0.950356543
0	8295	170	0.950356543
0	8296	170	0.950356543
0	8297	170	0.950356543
0	8532	176	0.79161997
0	8533	176	0.79161997
0	8534	176	0.79161997
0	8535	176	0.79161997
0	8615	177	0.754228513
0	8616	177	0.754228513
0	8652	178	1.754228513
0	8653	178	1.754228513
0	8713	179	0.21494683
0	8714	179	0.21494683
0	8737	180	1.21494683
0	8738	180	1.21494683
0	8764	181	2.097182236
0	8765	181	2.097182236
0	8809	182	3.097182236
0	8873	183	4.097182236
0	8874	183	0.846459381
0	8907	184	1.846459381
0	8908	184	1.846459381
0	8969	185	2.846459381
0	9132	189	0.101251774
0	9133	189	0.101251774
0	9134	189	0.101251774
0	9135	189	0.101251774
0	9333	193	0.812745543
0	9334	193	0.812745543
0	9335	193	0.812745543
0	9336	193	0.812745543
0	9373	194	0.882041085
0	9374	194	0.882041085
0	9412	195	1.882041085
0	9413	195	1.882041085
0	9486	196	2.26836738
0	9487	196	2.26836738
0	9540	197	3.26836738
0	9541	197	3.26836738
0	9586	198	3.308188451
0	9587	198	3.308188451
0	9664	199	4.308188451
0	9665	199	4.308188451
0	9666	199	3.2484576
0	9721	200	4.2484576
0	9722	200	4.2484576
0	9764	201	5.2484576
0	9765	201	2.810384994
0	9788	202	3.810384994
0	9789	202	3.810384994
0	9873	203	4.810384994
0	9874	203	4.26107563
0	9915	204	5.26107563
0	9916	204	5.26107563
0	10003	205	6.26107563
0	10004	205	5.403976315
0	10094	206	6.403976315
0	10140	207	7.403976315
0	10141	207	7.403976315
0	10142	207	7.037486834
0	10164	208	8.037486834
0	10165	208	8.037486834
0	10213	209	9.037486834
0	10214	209	6.989725476
0	10276	210	7.989725476
0	10277	210	7.989725476
0	10345	211	8.989725476
0	10400	212	9.732770396
0	10401	212	9.732770396
0	10493	213	10.732770396
0	10551	214	11.732770396
0	10552	214	9.924155396
0	10627	215	10.924155396
0	10666	216	11.924155396
0	10667	216	11.924155396
0	10731	217	12.616301629
0	10732	217	12.616301629
0	10785	218	13.616301629
0	10786	218	13.616301629
0	10819	219	14.538449295
0	10820	219	14.538449295
0	10821	219	14.538449295
0	10867	220	15.538449295
0	10868	220	14.903109513
0	10919	221	15.903109513
0	10920	221	15.903109513
0	10963	222	16.903109513
0	10964	222	16.850177933
0	11009	223	17.850177933
0	11010	223	17.850177933
0	11030	224	18.850177933
0	11031	224	17.524241271
0	11068	225	18.524241271
0	11069	225	18.524241271
0	11109	226	19.524241271
0	11110	226	16.116807942
0	11148	227	17.116807942
0	11149	227	17.116807942
0	11197	228	18.116807942
0	11198	228	16.621194904
0	11199	228	16.621194904
0	11259	229	17.621194904
0	11260	229	17.621194904
0	11320	230	17.215388842
0	11321	230	17.215388842
0	11376	231	18.215388842
0	11377	231	18.215388842
0	11448	232	18.475720824
0	11449	232	18.475720824
0	11535	233	19.475720824
0	11536	233	19.475720824
0	11607	234	20.148563485
0	11608	234	20.148563485
0	11662	235	21.148563485
0	11663	235	21.148563485
0	11718	236	19.009141331
0	11719	236	19.009141331
0	11764	237	20.009141331
0	11765	237	20.009141331
0	11799	238	15.352864322
0	11800	238	15.352864322
0	11845	239	16.352864322
0	11846	239	16.352864322
0	11847	239	12.234774314
0	11905	240	13.234774314
0	11906	240	13.234774314
0	11941	241	14.234774314
0	11942	241	13.657894722
0	11943	241	13.657894722
0	11970	242	14.657894722
0	11971	242	14.657894722
0	12024	243	14.954380386
0	12025	243	14.954380386
0	12079	244	15.954380386
0	12080	244	15.954380386
0	12177	245	16.148954469
0	12178	245	16.148954469
0	12224	246	17.148954469
0	12225	246	17.148954469
0	12261	247	14.566153014
0	12262	247	14.566153014
0	12289	248	15.566153014
0	12290	248	15.566153014
0	12291	248	15.13207333
0	12341	249	16.13207333
0	12342	249	16.13207333
0	12406	250	17.13207333
0	12407	250	14.544849755
0	12470	251	15.544849755
0	12471	251	15.544849755
0	12512	252	16.544849755
0	12513	252	15.416506588
0	12575	253	16.416506588
0	12576	253	16.416506588
0	12617	254	17.416506588
0	12618	254	14.053550975
0	12691	255	15.053550975
0	12692	255	15.053550975
0	12728	256	16.053550975
0	12729	256	15.342273896
0	12762	257	16.342273896
0	12763	257	16.342273896
0	12803	258	17.342273896
0	12804	258	14.546329029
0	12854	259	15.546329029
0	12855	259	15.546329029
0	12900	260	16.546329029
0	12901	260	14.556444607
0	12969	261	15.556444607
0	12970	261	15.556444607
0	13061	262	16.556444607
0	13062	262	12.846575939
0	13116	263	13.846575939
0	13117	263	13.846575939
0	13141	264	14.846575939
0	13142	264	13.463747886
0	13207	265	14.463747886
0	13208	265	14.463747886
0	13236	266	15.463747886
0	13237	266	13.911296733
0	13277	267	14.911296733
0	13278	267	14.911296733
0	13337	268	15.911296733
0	13338	268	12.034367537
0	13383	269	13.034367537
0	13384	269	13.034367537
0	13452	270	14.034367537
0	13453	270	9.09051269
0	13508	271	10.09051269
0	13509	271	10.09051269
0	13573	272	11.09051269
0	13574	272	10.125156626
0	13629	273	11.125156626
0	13630	273	11.125156626
0	13694	274	12.125156626
0	13695	274	11.711895261
0	13750	275	12.711895261
0	13751	275	12.711895261
0	13807	276	13.711895261
0	13808	276	4.306983946
0	13864	277	5.306983946
0	13865	277	5.306983946
0	13929	278	6.306983946
0	13930	278	5.844392509
0	13966	279	6.844392509
0	13967	279	6.844392509
0	14017	280	7.844392509
0	14018	280	3.786391318
0	14063	281	4.786391318
0	14064	281	4.786391318
0	14094	282	5.786391318
0	14095	282	2.058589528
0	14151	283	3.058589528
0	14152	283	3.058589528
0	14216	284	4.058589528
0	14217	284	2.107343555
0	14280	285	3.107343555
0	14281	285	3.107343555
0	14331	286	4.107343555
0	14332	286	1.6875552
0	14333	286	1.6875552
0	14369	287	2.6875552
0	14370	287	2.6875552
0	14415	288	0.888068014
0	14416	288	0.888068014
0	14434	289	1.888068014
0	14435	289	1.888068014
0	14473	290	2.151926323
0	14474	290	2.151926323
0	14519	291	3.151926323
0	14520	291	3.151926323
0	14568	292	0.680818146
0	14569	292	0.680818146
0	14627	293	1.680818146
0	14628	293	1.680818146
0	14651	294	1.642624029
0	14652	294	1.642624029
0	14685	295	2.642624029
0	14686	295	2.642624029
0	14732	296	1.254548531
0	14733	296	1.254548531
0	14776	297	2.254548531
0	14777	297	2.254548531
0	14829	298	1.324365921
0	14830	298	1.324365921
0	14848	299	2.324365921
0	14849	299	2.324365921
0	14912	300	2.360820372
0	14913	300	2.360820372
0	14940	301	3.360820372
0	14941	301	3.360820372
0	14996	302	2.898415091
0	14997	302	2.898415091
0	15038	303	3.898415091
0	15039	303	3.898415091
0	15066	304	4.340934043
0	15067	304	4.340934043
0	15104	305	5.340934043
0	15105	305	5.340934043
0	15138	306	6.191799788
0	15139	306	6.191799788
0	15180	307	7.191799788
0	15181	307	7.191799788
0	15208	308	7.330679023
0	15209	308	7.330679023
0	15246	309	8.330679023
0	15247	309	8.330679023
0	15269	310	6.805083374
0	15270	310	6.805083374
0	15294	311	7.805083374
0	15295	311	7.805083374
0	15342	312	5.799015751
0	15343	312	5.799015751
0	15387	313	6.799015751
0	15388	313	6.799015751
0	15406	314	6.501982023
0	15407	314	6.501982023
0	15454	315	7.501982023
0	15455	315	7.501982023
0	15509	316	7.022178639
0	15510	316	7.022178639
0	15554	317	8.022178639
0	15555	317	8.022178639
0	15584	318	3.700639899
0	15585	318	3.700639899
0	15615	319	4.700639899
0	15616	319	4.700639899
0	15683	320	0.739233971
0	15684	320	0.739233971
0	15727	321	1.739233971
0	15728	321	1.739233971
0	15821	323	0.997659048
0	15822	323	0.997659048
0	15874	324	1.997659048
0	15875	324	1.997659048
0	15876	324	1.326383227
0	15921	325	2.326383227
0	15922	325	2.326383227
0	15966	326	3.326383227
0	15967	326	1.117325493
0	16001	327	2.117325493
0	16002	327	2.117325493
0	16044	328	3.117325493
0	16085	329	0.665490771
0	16086	329	0.665490771
0	16131	330	1.665490771
0	16132	330	1.665490771
0	16177	331	1.400233567
0	16178	331	1.400233567
0	16215	332	2.400233567
0	16216	332	2.400233567
0	16303	333	2.954617902
0	16304	333	2.954617902
0	16358	334	3.954617902
0	16359	334	3.954617902
0	16422	335	2.472624949
0	16423	335	2.472624949
0	16448	336	3.472624949
0	16449	336	3.472624949
0	16478	337	2.206862392
0	16479	337	2.206862392
0	16520	338	3.206862392
0	16521	338	3.206862392
0	16743	344	0.547472108
0	16744	344	0.547472108
0	16745	344	0.547472108
0	16807	345	1.547472108
0	16873	346	1.444203443
0	16874	346	1.444203443
0	16919	347	2.444203443
0	16920	347	2.444203443
0	17312	355	0.268637194
0	17313	355	0.268637194
0	17314	355	0.268637194
0	17315	355	0.268637194
0	17601	360	0.770371759
0	17602	360	0.770371759
0	17603	360	0.770371759
0	17604	360	0.770371759
0	17605	360	0.023882565
0	17606	360	0.023882565
0	17607	360	0.023882565
0	17629	361	1.023882565
0	17773	365	0.41389583
0	17774	365	0.41389583
0	17775	365	0.41389583
0	17803	366	1.41389583
0	17804	366	1.156259676
0	17826	367	2.156259676
0	17827	367	2.156259676
0	17861	368	3.156259676
0	17862	368	2.766846093
0	17935	369	3.766846093
0	17936	369	3.766846093
0	17980	370	4.766846093
0	17981	370	0.602067033
0	18036	371	1.602067033
0	18037	371	1.602067033
0	18106	372	2.602067033
0	18300	378	0.795325146
0	18301	378	0.795325146
0	18302	378	0.795325146
0	18303	378	0.795325146
0	18338	379	0.176733981
0	18339	379	0.176733981
0	18392	380	1.176733981
0	18474	381	2.176733981
0	18475	381	0.706453085
0	18543	382	1.706453085
0	18544	382	1.706453085
0	18567	383	2.706453085
0	18568	383	1.190910004
0	18605	384	2.190910004
0	18606	384	2.190910004
0	18658	385	3.190910004
0	18659	385	0.848581867
0	18686	386	1.848581867
0	18687	386	1.848581867
0	18735	387	2.848581867
0	18736	387	0.059647324
0	18759	388	1.059647324
0	18760	388	1.059647324
0	18796	389	2.059647324
0	18835	391	0.974573068
0	18836	391	0.974573068
0	18879	392	1.974573068
0	18880	392	1.974573068
0	18968	393	1.570050092
0	18969	393	1.570050092
0	19017	394	2.570050092
0	19018	394	2.570050092
0	19074	395	2.730756554
0	19075	395	2.730756554
0	19129	396	3.730756554
0	19130	396	3.730756554
0	19180	397	3.948258938
0	19181	397	3.948258938
0	19217	398	4.948258938
0	19218	398	4.948258938
0	19276	399	4.445328214
0	19277	399	4.445328214
0	19340	400	5.445328214
0	19341	400	5.445328214
0	19362	401	6.336781447
0	19363	401	6.336781447
0	19400	402	7.336781447
0	19401	402	7.336781447
0	19424	403	5.477738935
0	19425	403	5.477738935
0	19461	404	6.477738935
0	19462	404	6.477738935
0	19527	405	6.965963956
0	19592	406	7.965963956
0	19593	406	7.965963956
0	19629	407	8.965963956
0	19630	407	1.813860106
0	19700	408	2.813860106
0	19701	408	2.813860106
0	19762	409	3.813860106
0	19880	411	0.775921654
0	19881	411	0.775921654
0	19921	412	1.775921654
0	19922	412	1.775921654
0	19999	413	2.329082429
0	20000	413	2.329082429
0	20045	414	3.329082429
0	20046	414	3.329082429
0	20095	415	2.980034652
0	20096	415	2.980034652
0	20138	416	3.980034652
0	20139	416	3.980034652
0	20181	417	1.398348204
0	20182	417	1.398348204
0	20259	418	2.398348204
0	20260	418	2.398348204
0	20291	419	1.7774381
0	20292	419	1.7774381
0	20324	420	2.7774381
0	20325	420	2.7774381
0	20368	421	3.095491104
0	20369	421	3.095491104
0	20397	422	4.095491104
0	20398	422	4.095491104
0	20457	423	2.615828839
0	20458	423	2.615828839
0	20523	424	3.615828839
0	20524	424	3.615828839
0	20580	425	2.71581552
0	20581	425	2.71581552
0	20617	426	3.71581552
0	20618	426	3.71581552
0	20650	427	4.083875376
0	20651	427	4.083875376
0	20652	427	4.083875376
0	20735	428	5.083875376
0	20736	428	0.99925479
0	20789	429	1.99925479
0	20790	429	1.99925479
0	20860	430	2.99925479
0	20861	430	0.779132928
0	20916	431	1.779132928
0	20917	431	1.779132928
0	20961	432	2.779132928
0	20962	432	2.215922305
0	21021	433	3.215922305
0	21022	433	3.215922305
0	21085	434	4.215922305
0	21299	439	0.021247747
0	21300	439	0.021247747
0	21301	439	0.021247747
0	21302	439	0.021247747
0	21468	444	0.315844392
0	21469	444	0.315844392
0	21470	444	0.315844392
0	21531	445	1.315844392
0	21631	447	0.605818882
0	21632	447	0.605818882
0	21633	447	0.605818882
0	21674	448	1.605818882
0	21804	452	0.879156164
0	21805	452	0.879156164
0	21806	452	0.879156164
0	21807	452	0.879156164
0	21912	454	0.983246845
0	21913	454	0.983246845
0	21914	454	0.983246845
0	21979	455	1.983246845
0	22025	456	1.617502825
0	22026	456	1.617502825
0	22048	457	2.617502825
0	22049	457	2.617502825
0	22098	458	0.962776391
0	22099	458	0.962776391
0	22138	459	1.962776391
0	22139	459	1.962776391
0	22167	460	2.611411597
0	22168	460	2.611411597
0	22227	461	3.611411597
0	22228	461	3.611411597
0	22271	462	3.897449348
0	22272	462	3.897449348
0	22303	463	4.897449348
0	22304	463	4.897449348
0	22383	465	0.703587579
0	22384	465	0.703587579
0	22385	465	0.703587579
0	22411	466	1.703587579
0	22497	469	0.742622747
0	22498	469	0.742622747
0	22499	469	0.742622747
0	22549	470	1.742622747
0	22550	470	0.871151971
0	22597	471	1.871151971
0	22598	471	1.871151971
0	22648	472	2.871151971
0	22649	472	1.567014601
0	22694	473	2.567014601
0	22695	473	2.567014601
0	22727	474	3.567014601
0	22728	474	2.822722943
0	22780	475	3.822722943
0	22835	476	4.822722943
0	22836	476	4.822722943
0	22880	477	5.263296015
0	22881	477	5.263296015
0	22882	477	5.263296015
0	22947	478	6.263296015
0	22948	478	5.210018398
0	23011	479	6.210018398
0	23012	479	6.210018398
0	23043	480	7.210018398
0	23044	480	6.876771428
0	23093	481	7.876771428
0	23094	481	7.876771428
0	23113	482	8.876771428
0	23114	482	4.085632189
0	23147	483	5.085632189
0	23148	483	5.085632189
0	23195	484	6.085632189
0	23196	484	4.350075483
0	23243	485	5.350075483
0	23244	485	5.350075483
0	23307	486	6.350075483
0	23308	486	5.50306168
0	23332	487	6.50306168
0	23333	487	6.50306168
0	23378	488	7.50306168
0	23379	488	3.323787447
0	23405	489	4.323787447
0	23406	489	4.323787447
0	23444	490	5.323787447
0	23445	490	2.056137806
0	23492	491	3.056137806
0	23493	491	3.056137806
0	23541	492	4.056137806
0	23542	492	2.295324271
0	23603	493	3.295324271
0	23604	493	3.295324271
0	23658	494	4.295324271
0	23703	495	4.474330111
0	23704	495	4.474330111
0	23705	495	4.474330111
0	23739	496	5.474330111
0	23740	496	3.875651264
0	23791	497	4.875651264
0	23792	497	4.875651264
0	23843	498	5.875651264
0	23844	498	4.00619794
0	23882	499	5.00619794
0	23883	499	5.00619794
0	23914	500	6.00619794
0	23915	500	5.542694934
0	23955	501	6.542694934
0	23956	501	6.542694934
0	24004	502	7.542694934
0	24005	502	6.425672149
0	24047	503	7.425672149
0	24048	503	7.425672149
0	24071	504	8.425672149
0	24072	504	7.665359798
0	24073	504	7.665359798
0	24110	505	8.665359798
0	24111	505	8.665359798
0	24153	506	4.122911679
0	24154	506	4.122911679
0	24199	507	5.122911679
0	24200	507	5.122911679
0	24228	508	1.818667399
0	24229	508	1.818667399
0	24300	509	2.818667399
0	24301	509	2.818667399
0	24366	510	1.094599467
0	24367	510	1.094599467
0	24421	511	2.094599467
0	24422	511	2.094599467
0	24501	512	0.677138365
0	24502	512	0.677138365
0	24539	513	1.677138365
0	24540	513	1.677138365
0	24541	513	1.566551458
0	24584	514	2.566551458
0	24585	514	2.566551458
0	24612	515	3.566551458
0	24652	516	0.533432212
0	24653	516	0.533432212
0	24694	517	1.533432212
0	24695	517	1.533432212
0	24829	519	0.231141992
0	24830	519	0.231141992
0	24831	519	0.231141992
0	24903	520	1.231141992
0	24904	520	0.086936692
0	24940	521	1.086936692
0	24941	521	1.086936692
0	24961	522	2.086936692
0	25017	523	0.373804499
0	25018	523	0.373804499
0	25053	524	1.373804499
0	25054	524	1.373804499
0	25188	526	0.984773727
0	25189	526	0.984773727
0	25190	526	0.984773727
0	25231	527	1.984773727
0	25232	527	1.947837645
0	25261	528	2.947837645
0	25262	528	2.947837645
0	25318	529	3.947837645
0	25319	529	3.481633853
0	25376	530	4.481633853
0	25377	530	4.481633853
0	25412	531	5.481633853
0	25413	531	2.470003199
0	25445	532	3.470003199
0	25446	532	3.470003199
0	25513	533	4.470003199
0	25514	533	4.037064984
0	25562	534	5.037064984
0	25563	534	5.037064984
0	25613	535	6.037064984
0	25614	535	5.82804933
0	25646	536	6.82804933
0	25647	536	6.82804933
0	25698	537	7.82804933
0	25699	537	4.428039512
0	25755	538	5.428039512
0	25756	538	5.428039512
0	25807	539	6.428039512
0	25808	539	0.915252299
0	25843	540	1.915252299
0	25844	540	1.915252299
0	25845	540	1.915252299
0	25976	543	0.666181139
0	25977	543	0.666181139
0	25978	543	0.666181139
0	26003	544	1.666181139
0	26115	547	0.701232944
0	26116	547	0.701232944
0	26117	547	0.701232944
0	26145	548	1.701232944
0	26213	549	0.946336611
0	26214	549	0.946336611
0	26261	550	1.946336611
0	26262	550	1.946336611
0	26358	552	0.102771559
0	26359	552	0.102771559
0	26360	552	0.102771559
0	26361	552	0.102771559
0	26737	559	0.850047078
0	26738	559	0.850047078
0	26739	559	0.850047078
0	26740	559	0.850047078
0	26793	560	0.170479403
0	26794	560	0.170479403
0	26840	561	1.170479403
0	26841	561	1.170479403
0	27001	565	0.240335344
0	27002	565	0.240335344
0	27003	565	0.240335344
0	27063	566	1.240335344
0	27652	581	0.076170221
0	27653	581	0.076170221
0	27654	581	0.076170221
0	27655	581	0.076170221
0	27729	583	0.132587758
0	27730	583	0.132587758
0	27731	583	0.132587758
0	27732	583	0.132587758
0	27815	585	0.363178411
0	27816	585	0.363178411
0	27850	586	1.363178411
0	27851	586	1.363178411
0	27889	587	0.255130086
0	27890	587	0.255130086
0	27919	588	1.255130086
0	27920	588	1.255130086
0	27976	589	0.505340443
0	27977	589	0.505340443
0	28034	590	1.505340443
0	28035	590	1.505340443
0	28098	591	2.476696835
0	28099	591	2.476696835
0	28197	592	3.476696835
0	28198	592	3.476696835
0	28428	596	0.794700334
0	28429	596	0.794700334
0	28430	596	0.794700334
0	28465	597	1.794700334
0	28701	602	0.478618619
0	28702	602	0.478618619
0	28703	602	0.478618619
0	28704	602	0.478618619
0	28772	603	0.837519398
0	28819	604	1.837519398
0	28820	604	1.837519398
0	28821	604	1.837519398
0	28883	605	0.657692157
0	28884	605	0.657692157
0	28918	606	1.657692157
0	28919	606	1.657692157
0	28920	606	1.160129805
0	28974	607	2.160129805
0	28975	607	2.160129805
0	29021	608	3.160129805
0	29022	608	2.784510553
0	29062	609	3.784510553
0	29063	609	3.784510553
0	29158	610	4.784510553
0	29159	610	3.915887009
0	29205	611	4.915887009
0	29206	611	4.915887009
0	29260	612	5.915887009
0	29261	612	5.550451888
0	29295	613	6.550451888
0	29296	613	6.550451888
0	29355	614	7.550451888
0	29356	614	6.131978783
0	29393	615	7.131978783
0	29394	615	7.131978783
0	29448	616	8.131978783
0	29449	616	7.102375786
0	29450	616	7.102375786
0	29498	617	8.102375786
0	29499	617	8.102375786
0	29527	618	7.326592106
0	29528	618	7.326592106
0	29549	619	8.326592106
0	29550	619	8.326592106
0	29593	620	6.84474438
0	29594	620	6.84474438
0	29684	621	7.84474438
0	29685	621	7.84474438
0	29731	622	8.779557411
0	29732	622	8.779557411
0	29793	623	9.779557411
0	29794	623	9.779557411
0	29859	624	7.185171199
0	29860	624	7.185171199
0	29896	625	8.185171199
0	29897	625	8.185171199
0	29947	626	5.415888265
0	29948	626	5.415888265
0	29994	627	6.415888265
0	29995	627	6.415888265
0	30036	628	6.183271518
0	30037	628	6.183271518
0	30074	629	7.183271518
0	30075	629	7.183271518
0	30126	630	7.692975244
0	30127	630	7.692975244
0	30198	631	8.692975244
0	30199	631	8.692975244
0	30250	632	6.079401617
0	30251	632	6.079401617
0	30323	633	7.079401617
0	30324	633	7.079401617
0	30369	634	6.603048501
0	30370	634	6.603048501
0	30412	635	7.603048501
0	30413	635	7.603048501
0	30465	636	6.377622994
0	30466	636	6.377622994
0	30530	637	7.377622994
0	30531	637	7.377622994
0	30576	638	4.545469426
0	30577	638	4.545469426
0	30629	639	5.545469426
0	30630	639	5.545469426
0	30704	640	3.690154986
0	30770	641	4.690154986
0	30771	641	4.690154986
0	30772	641	4.690154986
0	30853	642	1.700850326
0	30854	642	1.700850326
0	30918	643	2.700850326
0	30919	643	2.700850326
0	30993	645	0.781111976
0	30994	645	0.781111976
0	31021	646	1.781111976
0	31022	646	1.781111976
0	31073	647	2.240150489
0	31074	647	2.240150489
0	31130	648	3.240150489
0	31131	648	3.240150489
0	31242	651	0.896712697
0	31243	651	0.896712697
0	31244	651	0.896712697
0	31285	652	1.896712697
0	31340	653	0.852299368
0	31341	653	0.852299368
0	31386	654	1.852299368
0	31387	654	1.852299368
0	31450	655	2.153966059
0	31451	655	2.153966059
0	31503	656	3.153966059
0	31504	656	3.153966059
0	31555	657	3.788384365
0	31556	657	3.788384365
0	31594	658	4.788384365
0	31595	658	4.788384365
0	31596	658	3.793833458
0	31655	659	4.793833458
0	31656	659	4.793833458
0	31712	660	5.793833458
0	31713	660	3.53277921
0	31786	661	4.53277921
0	31787	661	4.53277921
0	31860	662	5.53277921
0	31861	662	4.682422684
0	31915	663	5.682422684
0	31916	663	5.682422684
0	31948	664	6.682422684
0	31949	664	5.774354816
0	32005	665	6.774354816
0	32006	665	6.774354816
0	32071	666	7.774354816
0	32072	666	6.818927175
0	32119	667	7.818927175
0	32147	668	8.818927175
0	32148	668	8.818927175
0	32149	668	7.471617846
0	32196	669	8.471617846
0	32197	669	8.471617846
0	32225	670	9.471617846
0	32226	670	9.381154501
0	32240	671	10.381154501
0	32241	671	10.381154501
0	32264	672	11.381154501
0	32265	672	10.018218477
0	32309	673	11.018218477
0	32310	673	11.018218477
0	32366	674	12.018218477
0	32367	674	8.753984274
0	32413	675	9.753984274
0	32414	675	9.753984274
0	32466	676	10.753984274
0	32467	676	7.687132313
0	32543	677	8.687132313
0	32544	677	8.687132313
0	32607	678	9.687132313
0	32608	678	8.956789617
0	32631	679	9.956789617
0	32632	679	9.956789617
0	32669	680	10.956789617
0	32670	680	3.160228443
0	32702	681	4.160228443
0	32703	681	4.160228443
0	32732	682	5.160228443
0	32733	682	4.589585106
0	32750	683	5.589585106
0	32751	683	5.589585106
0	32810	684	6.589585106
0	32811	684	0.172171922
0	32839	685	1.172171922
0	32840	685	1.172171922
0	32900	686	2.172171922
0	32901	686	0.460712436
0	32970	687	1.460712436
0	32971	687	1.460712436
0	33012	688	2.460712436
0	33013	688	1.439469205
0	33079	689	2.439469205
0	33126	690	3.439469205
0	33127	690	3.439469205
0	33180	691	3.990524863
0	33181	691	3.990524863
0	33217	692	4.990524863
0	33218	692	4.990524863
0	33251	693	4.197915993
0	33252	693	4.197915993
0	33301	694	5.197915993
0	33302	694	5.197915993
0	33404	696	0.998325905
0	33405	696	0.998325905
0	33406	696	0.998325905
0	33407	696	0.998325905
0	33597	700	0.309692876
0	33598	700	0.309692876
0	33599	700	0.309692876
0	33600	700	0.309692876
0	33709	702	0.873028407
0	33710	702	0.873028407
0	33711	702	0.873028407
0	33746	703	1.873028407
0	33747	703	1.18929249
0	33775	704	2.18929249
0	33776	704	2.18929249
0	33811	705	3.18929249
0	33812	705	3.042685917
0	33860	706	4.042685917
0	33861	706	4.042685917
0	33900	707	5.042685917
0	33901	707	3.828857747
0	33976	708	4.828857747
0	33977	708	4.828857747
0	34059	709	5.828857747
0	34060	709	4.405480006
0	34105	710	5.405480006
0	34106	710	5.405480006
0	34159	711	6.405480006
0	34160	711	4.59205658
0	34206	712	5.59205658
0	34207	712	5.59205658
0	34241	713	6.59205658
0	34242	713	5.764700566
0	34243	713	5.764700566
0	34266	714	6.764700566
0	34267	714	6.764700566
0	34290	715	2.313930075
0	34291	715	2.313930075
0	34335	716	3.313930075
0	34336	716	3.313930075
0	34372	717	3.849279943
0	34373	717	3.849279943
0	34442	718	4.849279943
0	34443	718	4.849279943
0	34494	719	0.169360041
0	34495	719	0.169360041
0	34525	720	1.169360041
0	34526	720	1.169360041
0	34660	722	0.773314638
0	34661	722	0.773314638
0	34704	723	1.773314638
0	34705	723	1.773314638
0	34751	724	2.045141712
0	34752	724	2.045141712
0	34844	725	3.045141712
0	34845	725	3.045141712
0	34927	726	3.529153066
0	34928	726	3.529153066
0	34929	726	3.529153066
0	34990	727	4.529153066
0	34991	727	2.441454252
0	35074	728	3.441454252