version 3
run Sched1-0-20250301-18:23:06-1124
attr configname Sched1
attr datetime 20250301-18:23:06
attr datetimef 20250301-182306
attr experiment Sched1
attr inifile omnetpp.ini
attr iterationvars ""
attr iterationvarsd ""
attr iterationvarsf ""
attr measurement ""
attr network RadioSch2
attr processid 1124
attr repetition 0
attr replication #0
attr resultdir results
attr runnumber 0
attr seedset 0
config description "low job arrival rate"
config *.scalar-recording true
config *.vector-recording true
config **.user[*].generator.sendIaTime "0.2 ms"
config *.user[*].generator.networkLoad 0.5
config *.user[*].generator.packetsPerUser 4
config *.user[*].generator.channels 14
config *.user[*].generator.usersCount 7
config *.user[*].generator.MAX_Sim "10 s"
config *.usersCount 7
config network RadioSch2
config sim-time-limit 100h
config cpu-time-limit 300s
config simtime-resolution ns
config record-eventlog true

vector 0 RadioSch2.sink lifetime_user0:vector ETV
attr interpolationmode none
attr recordingmode vector
attr title "User 0 Packet Lifetime"
attr unit s
vector 1 RadioSch2.sink lifetime_user1:vector ETV
attr interpolationmode none
attr recordingmode vector
attr title "User 1 Packet Lifetime"
attr unit s
vector 2 RadioSch2.sink lifetime_user2:vector ETV
attr interpolationmode none
attr recordingmode vector
attr title "User 2 Packet Lifetime"
attr unit s
vector 3 RadioSch2.sink lifetime_user3:vector ETV
attr interpolationmode none
attr recordingmode vector
attr title "User 3 Packet Lifetime"
attr unit s
vector 4 RadioSch2.sink lifetime_user4:vector ETV
attr interpolationmode none
attr recordingmode vector
attr title "User 4 Packet Lifetime"
attr unit s
vector 5 RadioSch2.sink lifetime_user5:vector ETV
attr interpolationmode none
attr recordingmode vector
attr title "User 5 Packet Lifetime"
attr unit s
vector 6 RadioSch2.sink lifetime_user6:vector ETV
attr interpolationmode none
attr recordingmode vector
attr title "User 6 Packet Lifetime"
attr unit s
vector 7 RadioSch2.flc "delay vector" ETV
vector 8 RadioSch2.flc "result nescalat" ETV
vector 9 RadioSch2.flc "res scalat" ETV
vector 10 RadioSch2.flc "weight vector" ETV
0	86	1	1
0	134	2	2
0	135	2	2
0	189	3	3
0	304	9	0.105902312
0	305	9	0.105902312
0	332	10	1.105902312
0	333	10	1.105902312
0	369	11	1.85744115
0	370	11	1.85744115
0	390	12	2.85744115
0	391	12	2.85744115
0	410	13	3.305326396
0	411	13	3.305326396
0	451	14	4.305326396
0	452	14	4.305326396
0	518	16	0.749155637
0	519	16	0.749155637
0	533	17	1.749155637
0	534	17	1.749155637
0	555	18	0.34936809
0	556	18	0.34936809
0	576	19	1.34936809
0	577	19	1.34936809
0	769	28	0.333720958
0	770	28	0.333720958
0	809	29	1.333720958
0	810	29	1.333720958
0	1223	41	0.831847527
0	1224	41	0.831847527
0	1225	41	0.831847527
0	1276	42	1.831847527
0	1277	42	1.112018161
0	1309	43	2.112018161
0	1310	43	2.112018161
0	1337	44	3.112018161
0	1338	44	2.905286538
0	1382	45	3.905286538
0	1383	45	3.905286538
0	1416	46	4.905286538
0	1417	46	0.358900557
0	1462	47	1.358900557
0	1463	47	1.358900557
0	1492	48	2.358900557
0	1521	49	0.230997673
0	1522	49	0.230997673
0	1562	50	1.230997673
0	1563	50	1.230997673
0	1844	59	0.839622627
0	1845	59	0.839622627
0	1846	59	0.839622627
0	1860	60	1.839622627
0	1961	63	0.31594871
0	1962	63	0.31594871
0	2000	64	1.31594871
0	2001	64	1.31594871
0	2199	70	0.894113658
0	2200	70	0.894113658
0	2201	70	0.894113658
0	2230	71	1.894113658
0	2310	75	0.721522223
0	2311	75	0.721522223
0	2340	76	1.721522223
0	2341	76	1.721522223
0	2549	82	0.706663643
0	2550	82	0.706663643
0	2601	83	1.706663643
0	2602	83	1.706663643
0	2617	84	1.877922914
0	2618	84	1.877922914
1	88	1	1
1	137	2	2
1	191	3	3
1	192	3	3
1	212	4	3.766461324
1	213	4	3.766461324
1	226	5	4.766461324
1	227	5	4.766461324
1	262	7	0.077616523
1	263	7	0.077616523
1	284	8	1.077616523
1	285	8	1.077616523
1	372	11	0.232092767
1	373	11	0.232092767
1	393	12	1.232092767
1	394	12	1.232092767
1	666	24	0.460306199
1	667	24	0.460306199
1	668	24	0.460306199
1	688	25	1.460306199
1	721	26	0.442930973
1	722	26	0.442930973
1	749	27	1.442930973
1	750	27	1.442930973
1	939	33	0.719242155
1	940	33	0.719242155
1	941	33	0.719242155
1	974	34	1.719242155
1	1028	36	0.638934717
1	1029	36	0.638934717
1	1053	37	1.638934717
1	1054	37	1.638934717
1	1073	38	0.518923204
1	1074	38	0.518923204
1	1122	39	1.518923204
1	1123	39	1.518923204
1	1152	40	1.469605967
1	1153	40	1.469605967
1	1227	41	2.469605967
1	1228	41	2.469605967
1	1279	42	1.811155796
1	1280	42	1.811155796
1	1312	43	2.811155796
1	1313	43	2.811155796
1	1340	44	1.038356718
1	1341	44	1.038356718
1	1385	45	2.038356718
1	1386	45	2.038356718
1	1419	46	2.083345227
1	1420	46	2.083345227
1	1465	47	3.083345227
1	1466	47	3.083345227
1	1494	48	1.676629281
1	1495	48	1.676629281
1	1524	49	2.676629281
1	1525	49	2.676629281
1	1565	50	0.600150077
1	1566	50	0.600150077
1	1597	51	1.600150077
1	1598	51	1.600150077
1	1624	52	2.599928669
1	1625	52	2.599928669
1	1656	53	3.599928669
1	1657	53	3.599928669
1	1812	58	0.356643705
1	1813	58	0.356643705
1	1848	59	1.356643705
1	1849	59	1.356643705
1	1964	63	0.094138672
1	1965	63	0.094138672
1	2003	64	1.094138672
1	2004	64	1.094138672
1	2070	67	0.112284099
1	2071	67	0.112284099
1	2116	68	1.112284099
1	2117	68	1.112284099
1	2146	69	1.59796315
1	2147	69	1.59796315
1	2203	70	2.59796315
1	2204	70	2.59796315
1	2496	81	0.638111282
1	2497	81	0.638111282
1	2498	81	0.638111282
1	2552	82	1.638111282
2	90	1	1
2	139	2	2
2	140	2	2
2	141	2	2
2	454	14	0.74035088
2	455	14	0.74035088
2	456	14	0.74035088
2	457	14	0.74035088
2	724	26	0.791591313
2	725	26	0.791591313
2	726	26	0.791591313
2	727	26	0.791591313
2	898	32	0.964317079
2	899	32	0.964317079
2	900	32	0.964317079
2	901	32	0.964317079
2	976	34	0.705875075
2	977	34	0.705875075
2	978	34	0.705875075
2	991	35	1.705875075
2	1031	36	0.172024604
2	1032	36	0.172024604
2	1056	37	1.172024604
2	1057	37	1.172024604
2	1076	38	1.568860563
2	1077	38	1.568860563
2	1125	39	2.568860563
2	1126	39	2.568860563
2	1155	40	1.38943205
2	1156	40	1.38943205
2	1230	41	2.38943205
2	1231	41	2.38943205
2	1282	42	0.44490765
2	1283	42	0.44490765
2	1315	43	1.44490765
2	1316	43	1.44490765
2	1568	50	0.45621978
2	1569	50	0.45621978
2	1570	50	0.45621978
2	1571	50	0.45621978
2	1627	52	0.961166605
2	1628	52	0.961166605
2	1659	53	1.961166605
2	1660	53	1.961166605
2	1698	54	1.789360771
2	1699	54	1.789360771
2	1709	55	2.789360771
2	1710	55	2.789360771
2	1730	56	2.859260697
2	1731	56	2.859260697
2	1773	57	3.859260697
2	1774	57	3.859260697
2	1815	58	4.033828723
2	1816	58	4.033828723
2	1851	59	5.033828723
2	1852	59	5.033828723
2	1904	61	0.44152403
2	1905	61	0.44152403
2	1920	62	1.44152403
2	1921	62	1.44152403
2	2006	64	0.56853811
2	2007	64	0.56853811
2	2008	64	0.56853811
2	2029	65	1.56853811
2	2206	70	0.631568179
2	2207	70	0.631568179
2	2208	70	0.631568179
2	2209	70	0.631568179
2	2210	70	0.575381814
2	2232	71	1.575381814
2	2233	71	1.575381814
2	2244	72	2.575381814
2	2245	72	2.529408813
2	2262	73	3.529408813
2	2263	73	3.529408813
2	2288	74	4.529408813
2	2289	74	1.479714076
2	2313	75	2.479714076
2	2314	75	2.479714076
2	2343	76	3.479714076
2	2344	76	2.915842538
2	2384	77	3.915842538
2	2385	77	3.915842538
2	2428	78	4.915842538
2	2429	78	2.479584717
2	2451	79	3.479584717
2	2452	79	3.479584717
2	2472	80	4.479584717
2	2554	82	0.44672379
2	2555	82	0.44672379
2	2604	83	1.44672379
2	2605	83	1.44672379
2	2620	84	1.892376504
2	2621	84	1.892376504
3	92	1	1
3	143	2	2
3	144	2	2
3	194	3	3
3	195	3	1.726575437
3	215	4	2.726575437
3	216	4	2.726575437
3	217	4	2.726575437
3	229	5	2.080263452
3	230	5	2.080263452
3	236	6	3.080263452
3	237	6	3.080263452
3	579	19	0.699375975
3	580	19	0.699375975
3	581	19	0.699375975
3	582	19	0.699375975
3	625	22	0.854384226
3	626	22	0.854384226
3	646	23	1.854384226
3	647	23	1.854384226
3	690	25	0.635194627
3	691	25	0.635194627
3	729	26	1.635194627
3	730	26	1.635194627
3	812	29	0.076762773
3	813	29	0.076762773
3	840	30	1.076762773
3	841	30	1.076762773
3	861	31	0.64105391
3	862	31	0.64105391
3	903	32	1.64105391
3	904	32	1.64105391
3	980	34	0.066137597
3	981	34	0.066137597
3	982	34	0.066137597
3	993	35	1.066137597
3	1907	61	0.004575517
3	1908	61	0.004575517
3	1909	61	0.004575517
3	1910	61	0.004575517
3	2031	65	0.530312591
3	2032	65	0.530312591
3	2033	65	0.530312591
3	2034	65	0.530312591
3	2557	82	0.722874886
3	2558	82	0.722874886
3	2559	82	0.722874886
3	2560	82	0.722874886
3	2561	82	0.02608002
3	2562	82	0.02608002
3	2563	82	0.02608002
3	2564	82	0.02608002
4	94	1	1
4	95	1	1
4	96	1	1
4	97	1	1
4	146	2	0.06559158
4	147	2	0.06559158
4	148	2	0.06559158
4	149	2	0.06559158
4	197	3	0.700947476
4	198	3	0.700947476
4	199	3	0.700947476
4	219	4	1.700947476
4	375	11	0.539690444
4	376	11	0.539690444
4	377	11	0.539690444
4	378	11	0.539690444
4	485	15	0.516206423
4	486	15	0.516206423
4	487	15	0.516206423
4	488	15	0.516206423
4	489	15	0.112067322
4	521	16	1.112067322
4	522	16	1.112067322
4	536	17	2.112067322
4	843	30	0.817713833
4	844	30	0.817713833
4	845	30	0.817713833
4	846	30	0.817713833
4	906	32	0.577869553
4	907	32	0.577869553
4	908	32	0.577869553
4	943	33	1.577869553
4	1233	41	0.503333582
4	1234	41	0.503333582
4	1235	41	0.503333582
4	1236	41	0.503333582
4	1388	45	0.61740495
4	1389	45	0.61740495
4	1390	45	0.61740495
4	1391	45	0.61740495
4	1392	45	0.385115502
4	1422	46	1.385115502
4	1423	46	1.385115502
4	1424	46	1.385115502
4	1497	48	0.708660607
4	1498	48	0.708660607
4	1499	48	0.708660607
4	1527	49	1.708660607
4	1776	57	0.232987924
4	1777	57	0.232987924
4	1778	57	0.232987924
4	1779	57	0.232987924
4	1780	57	0.109282758
4	1781	57	0.109282758
4	1818	58	1.109282758
4	1819	58	1.109282758
4	1967	63	0.311063652
4	1968	63	0.311063652
4	1969	63	0.311063652
4	1970	63	0.311063652
4	2052	66	0.647693705
4	2053	66	0.647693705
4	2054	66	0.647693705
4	2055	66	0.647693705
4	2119	68	0.533824792
4	2120	68	0.533824792
4	2149	69	1.533824792
4	2150	69	1.533824792
4	2291	74	0.312647351
4	2292	74	0.312647351
4	2293	74	0.312647351
4	2294	74	0.312647351
4	2387	77	0.338314584
4	2388	77	0.338314584
4	2389	77	0.338314584
4	2431	78	1.338314584
4	2432	78	1.299372947
4	2454	79	2.299372947
4	2455	79	2.299372947
4	2474	80	3.299372947
4	2475	80	2.025037555
4	2500	81	3.025037555
4	2501	81	3.025037555
4	2566	82	4.025037555
5	99	1	1
5	100	1	1
5	101	1	1
5	102	1	1
5	201	3	0.402214607
5	202	3	0.402214607
5	203	3	0.402214607
5	204	3	0.402214607
5	380	11	0.238645743
5	381	11	0.238645743
5	382	11	0.238645743
5	383	11	0.238645743
5	815	29	0.420658358
5	816	29	0.420658358
5	817	29	0.420658358
5	818	29	0.420658358
5	819	29	0.343139233
5	820	29	0.343139233
5	821	29	0.343139233
5	822	29	0.343139233
5	910	32	0.80262837
5	911	32	0.80262837
5	912	32	0.80262837
5	913	32	0.80262837
5	945	33	0.80230239
5	946	33	0.80230239
5	947	33	0.80230239
5	984	34	1.80230239
5	1128	39	0.238712078
5	1129	39	0.238712078
5	1130	39	0.238712078
5	1131	39	0.238712078
5	1285	42	0.548870011
5	1286	42	0.548870011
5	1287	42	0.548870011
5	1288	42	0.548870011
5	1394	45	0.480551393
5	1395	45	0.480551393
5	1396	45	0.480551393
5	1426	46	1.480551393
5	1468	47	0.200961132
5	1469	47	0.200961132
5	1501	48	1.200961132
5	1502	48	1.200961132
5	1600	51	0.464719802
5	1601	51	0.464719802
5	1602	51	0.464719802
5	1603	51	0.464719802
5	1662	53	0.028541351
5	1663	53	0.028541351
5	1664	53	0.028541351
5	1701	54	1.028541351
5	1702	54	0.361042786
5	1712	55	1.361042786
5	1713	55	1.361042786
5	1733	56	2.361042786
5	1821	58	0.825900162
5	1822	58	0.825900162
5	1823	58	0.825900162
5	1854	59	1.825900162
5	1912	61	0.612333111
5	1913	61	0.612333111
5	1923	62	1.612333111
5	1924	62	1.612333111
5	1925	62	1.347965068
5	1972	63	2.347965068
5	1973	63	2.347965068
5	2010	64	3.347965068
5	2011	64	0.68873407
5	2012	64	0.68873407
5	2036	65	1.68873407
5	2037	65	1.68873407
5	2122	68	0.840686364
5	2123	68	0.840686364
5	2124	68	0.840686364
5	2152	69	1.840686364
5	2153	69	0.156713172
5	2154	69	0.156713172
5	2212	70	1.156713172
5	2213	70	1.156713172
5	2235	71	0.064842557
5	2236	71	0.064842557
5	2237	71	0.064842557
5	2247	72	1.064842557
5	2346	76	0.539327487
5	2347	76	0.539327487
5	2348	76	0.539327487
5	2349	76	0.539327487
5	2391	77	0.613643599
5	2392	77	0.613643599
5	2434	78	1.613643599
5	2435	78	1.613643599
5	2477	80	0.070601015
5	2478	80	0.070601015
5	2479	80	0.070601015
5	2503	81	1.070601015
6	104	1	1
6	105	1	1
6	151	2	2
6	152	2	2
6	265	7	0.72441553
6	266	7	0.72441553
6	267	7	0.72441553
6	268	7	0.72441553
6	287	8	0.157332287
6	288	8	0.157332287
6	307	9	1.157332287
6	308	9	1.157332287
6	413	13	0.576776468
6	414	13	0.576776468
6	415	13	0.576776468
6	416	13	0.576776468
6	459	14	0.884266643
6	460	14	0.884266643
6	491	15	1.884266643
6	492	15	1.884266643
6	524	16	2.008744257
6	525	16	2.008744257
6	538	17	3.008744257
6	539	17	3.008744257
6	558	18	2.168688426
6	559	18	2.168688426
6	584	19	3.168688426
6	585	19	3.168688426
6	628	22	0.791707337
6	629	22	0.791707337
6	630	22	0.791707337
6	649	23	1.791707337
6	650	23	1.710457502
6	670	24	2.710457502
6	671	24	2.710457502
6	693	25	3.710457502
6	694	25	2.989448494
6	732	26	3.989448494
6	733	26	3.989448494
6	752	27	4.989448494
6	753	27	0.12341388
6	772	28	1.12341388
6	773	28	1.12341388
6	824	29	2.12341388
6	1034	36	0.58409208
6	1035	36	0.58409208
6	1036	36	0.58409208
6	1037	36	0.58409208
6	1133	39	0.216568233
6	1134	39	0.216568233
6	1135	39	0.216568233
6	1158	40	1.216568233
6	1159	40	0.993088021
6	1238	41	1.993088021
6	1239	41	1.993088021
6	1290	42	2.993088021
6	1291	42	1.9790652
6	1318	43	2.9790652
6	1319	43	2.9790652
6	1320	43	2.9790652
6	1343	44	3.849637981
6	1344	44	3.849637981
6	1345	44	3.849637981
6	1398	45	4.849637981
6	1471	47	0.726313076
6	1472	47	0.726313076
6	1473	47	0.726313076
6	1504	48	1.726313076
6	1605	51	0.204890892
6	1606	51	0.204890892
6	1607	51	0.204890892
6	1630	52	1.204890892
6	1735	56	0.552437758
6	1736	56	0.552437758
6	1737	56	0.552437758
6	1738	56	0.552437758
6	1783	57	0.742602703
6	1784	57	0.742602703
6	1825	58	1.742602703
6	1826	58	1.742602703
6	2126	68	0.460058909
6	2127	68	0.460058909
6	2128	68	0.460058909
6	2129	68	0.460058909
6	2437	78	0.978508587
6	2438	78	0.978508587
6	2439	78	0.978508587
6	2440	78	0.978508587
6	2441	78	0.795956389
6	2442	78	0.795956389
6	2443	78	0.795956389
6	2444	78	0.795956389
6	2607	83	0.772382452
6	2608	83	0.772382452
6	2609	83	0.772382452
6	2610	83	0.772382452
7	10	0	0
7	85	1	0
7	133	2	1000
7	188	3	891
7	211	4	781
7	225	5	820
7	235	6	820
7	261	7	820
7	283	8	806
7	303	9	763
7	331	10	788
7	368	11	788
7	389	12	708
7	409	13	708
7	450	14	696
7	484	15	704
7	517	16	723
7	532	17	782
7	554	18	878
7	575	19	920
7	589	20	990
7	592	21	990
7	624	22	990
7	645	23	981
7	665	24	1004
7	687	25	1052
7	720	26	1115
7	748	27	1191
7	768	28	1227
7	808	29	1224
7	839	30	1158
7	860	31	1143
7	897	32	1143
7	938	33	1112
7	973	34	1108
7	990	35	1114
7	1027	36	1114
7	1052	37	1095
7	1072	38	1095
7	1121	39	1095
7	1151	40	1042
7	1222	41	1043
7	1275	42	1041
7	1308	43	1048
7	1336	44	1092
7	1381	45	1153
7	1415	46	1145
7	1461	47	1152
7	1491	48	1131
7	1520	49	1128
7	1561	50	1131
7	1596	51	1131
7	1623	52	1099
7	1655	53	1099
7	1697	54	1081
7	1708	55	1076
7	1729	56	1079
7	1772	57	1075
7	1811	58	1043
7	1843	59	1048
7	1859	60	1052
7	1903	61	1052
7	1919	62	1047
7	1960	63	1054
7	1999	64	1052
7	2028	65	1060
7	2051	66	1066
7	2069	67	1058
7	2115	68	1058
7	2145	69	1040
7	2198	70	1040
7	2229	71	1041
7	2243	72	1029
7	2261	73	1029
7	2287	74	1029
7	2309	75	1017
7	2339	76	1017
7	2383	77	1009
7	2427	78	998
7	2450	79	1001
7	2471	80	1011
7	2495	81	1013
7	2548	82	1028
7	2600	83	1039
7	2616	84	1035
8	10	0	16
8	85	1	16
8	133	2	64
8	188	3	16
8	211	4	16
8	225	5	16
8	235	6	16
8	261	7	16
8	283	8	16
8	303	9	16
8	331	10	16
8	368	11	16
8	389	12	16
8	409	13	16
8	450	14	16
8	484	15	16
8	517	16	16
8	532	17	16
8	554	18	16
8	575	19	64
8	589	20	64
8	592	21	64
8	624	22	64
8	645	23	64
8	665	24	64
8	687	25	64
8	720	26	64
8	748	27	64
8	768	28	64
8	808	29	64
8	839	30	64
8	860	31	64
8	897	32	64
8	938	33	64
8	973	34	64
8	990	35	64
8	1027	36	64
8	1052	37	64
8	1072	38	64
8	1121	39	64
8	1151	40	64
8	1222	41	64
8	1275	42	64
8	1308	43	64
8	1336	44	64
8	1381	45	64
8	1415	46	64
8	1461	47	64
8	1491	48	64
8	1520	49	64
8	1561	50	64
8	1596	51	64
8	1623	52	64
8	1655	53	64
8	1697	54	64
8	1708	55	64
8	1729	56	64
8	1772	57	64
8	1811	58	64
8	1843	59	64
8	1859	60	64
8	1903	61	64
8	1919	62	64
8	1960	63	64
8	1999	64	64
8	2028	65	64
8	2051	66	64
8	2069	67	64
8	2115	68	64
8	2145	69	64
8	2198	70	64
8	2229	71	64
8	2243	72	64
8	2261	73	64
8	2287	74	64
8	2309	75	64
8	2339	76	64
8	2383	77	64
8	2427	78	64
8	2450	79	64
8	2471	80	64
8	2495	81	64
8	2548	82	64
8	2600	83	64
8	2616	84	64
9	10	0	-3
9	85	1	-3
9	133	2	7
9	188	3	-3
9	211	4	-3
9	225	5	-3
9	235	6	-3
9	261	7	-3
9	283	8	-3
9	303	9	-3
9	331	10	-3
9	368	11	-3
9	389	12	-3
9	409	13	-3
9	450	14	-3
9	484	15	-3
9	517	16	-3
9	532	17	-3
9	554	18	-3
9	575	19	7
9	589	20	7
9	592	21	7
9	624	22	7
9	645	23	7
9	665	24	7
9	687	25	7
9	720	26	7
9	748	27	7
9	768	28	7
9	808	29	7
9	839	30	7
9	860	31	7
9	897	32	7
9	938	33	7
9	973	34	7
9	990	35	7
9	1027	36	7
9	1052	37	7
9	1072	38	7
9	1121	39	7
9	1151	40	7
9	1222	41	7
9	1275	42	7
9	1308	43	7
9	1336	44	7
9	1381	45	7
9	1415	46	7
9	1461	47	7
9	1491	48	7
9	1520	49	7
9	1561	50	7
9	1596	51	7
9	1623	52	7
9	1655	53	7
9	1697	54	7
9	1708	55	7
9	1729	56	7
9	1772	57	7
9	1811	58	7
9	1843	59	7
9	1859	60	7
9	1903	61	7
9	1919	62	7
9	1960	63	7
9	1999	64	7
9	2028	65	7
9	2051	66	7
9	2069	67	7
9	2115	68	7
9	2145	69	7
9	2198	70	7
9	2229	71	7
9	2243	72	7
9	2261	73	7
9	2287	74	7
9	2309	75	7
9	2339	76	7
9	2383	77	7
9	2427	78	7
9	2450	79	7
9	2471	80	7
9	2495	81	7
9	2548	82	7
9	2600	83	7
9	2616	84	7
10	10	0	7
10	85	1	7
10	133	2	13
10	188	3	7
10	211	4	7
10	225	5	7
10	235	6	7
10	261	7	7
10	283	8	7
10	303	9	7
10	331	10	7
10	368	11	7
10	389	12	7
10	409	13	7
10	450	14	7
10	484	15	7
10	517	16	7
10	532	17	7
10	554	18	7
10	575	19	13
10	589	20	13
10	592	21	13
10	624	22	13
10	645	23	13
10	665	24	13
10	687	25	13
10	720	26	13
10	748	27	13
10	768	28	13
10	808	29	13
10	839	30	13
10	860	31	13
10	897	32	13
10	938	33	13
10	973	34	13
10	990	35	13
10	1027	36	13
10	1052	37	13
10	1072	38	13
10	1121	39	13
10	1151	40	13
10	1222	41	13
10	1275	42	13
10	1308	43	13
10	1336	44	13
10	1381	45	13
10	1415	46	13
10	1461	47	13
10	1491	48	13
10	1520	49	13
10	1561	50	13
10	1596	51	13
10	1623	52	13
10	1655	53	13
10	1697	54	13
10	1708	55	13
10	1729	56	13
10	1772	57	13
10	1811	58	13
10	1843	59	13
10	1859	60	13
10	1903	61	13
10	1919	62	13
10	1960	63	13
10	1999	64	13
10	2028	65	13
10	2051	66	13
10	2069	67	13
10	2115	68	13
10	2145	69	13
10	2198	70	13
10	2229	71	13
10	2243	72	13
10	2261	73	13
10	2287	74	13
10	2309	75	13
10	2339	76	13
10	2383	77	13
10	2427	78	13
10	2450	79	13
10	2471	80	13
10	2495	81	13
10	2548	82	13
10	2600	83	13
10	2616	84	13

