version 3
run Sched1-0-20250317-19:22:22-17676
attr configname Sched1
attr datetime 20250317-19:22:22
attr datetimef 20250317-192222
attr experiment Sched1
attr inifile omnetpp.ini
attr iterationvars ""
attr iterationvarsd ""
attr iterationvarsf ""
attr measurement ""
attr network RadioSch2
attr processid 17676
attr repetition 0
attr replication #0
attr resultdir results
attr runnumber 0
attr seedset 0
config description "low job arrival rate"
config *.scalar-recording true
config *.vector-recording true
config **.user[*].generator.sendIaTime "0.2 ms"
config *.user[*].generator.networkLoad 0.8
config *.user[*].generator.packetsPerUser 4
config *.user[*].generator.channels 14
config *.user[*].generator.usersCount 7
config *.user[*].generator.MAX_Sim "10 s"
config *.usersCount 7
config network RadioSch2
config sim-time-limit 100h
config cpu-time-limit 300s
config simtime-resolution ns
config record-eventlog true

vector 0 RadioSch2.sink lifetime_user0:vector ETV
attr interpolationmode none
attr recordingmode vector
attr title "User 0 Packet Lifetime"
attr unit s
vector 1 RadioSch2.sink lifetime_user1:vector ETV
attr interpolationmode none
attr recordingmode vector
attr title "User 1 Packet Lifetime"
attr unit s
vector 2 RadioSch2.sink lifetime_user2:vector ETV
attr interpolationmode none
attr recordingmode vector
attr title "User 2 Packet Lifetime"
attr unit s
vector 3 RadioSch2.sink lifetime_user3:vector ETV
attr interpolationmode none
attr recordingmode vector
attr title "User 3 Packet Lifetime"
attr unit s
vector 4 RadioSch2.sink lifetime_user4:vector ETV
attr interpolationmode none
attr recordingmode vector
attr title "User 4 Packet Lifetime"
attr unit s
vector 5 RadioSch2.sink lifetime_user5:vector ETV
attr interpolationmode none
attr recordingmode vector
attr title "User 5 Packet Lifetime"
attr unit s
vector 6 RadioSch2.sink lifetime_user6:vector ETV
attr interpolationmode none
attr recordingmode vector
attr title "User 6 Packet Lifetime"
attr unit s
vector 7 RadioSch2.flc "delay vector" ETV
vector 8 RadioSch2.flc "result nescalat" ETV
vector 9 RadioSch2.flc "res scalat" ETV
vector 10 RadioSch2.flc "weight vector" ETV
0	95	1	1
0	161	2	2
0	207	3	3
0	208	3	3
0	358	6	0.441188945
0	359	6	0.441188945
0	415	7	1.441188945
0	461	8	2.441188945
0	462	8	2.035847721
0	531	9	3.035847721
0	532	9	3.035847721
0	585	10	4.035847721
0	632	11	4.407242891
0	633	11	4.407242891
0	694	12	5.407242891
0	733	13	6.407242891
0	789	14	1.591365237
0	790	14	1.591365237
0	844	15	2.591365237
0	845	15	2.591365237
0	886	16	1.809906254
0	887	16	1.809906254
0	923	17	2.809906254
0	924	17	2.809906254
0	1077	20	0.499313261
0	1078	20	0.499313261
0	1136	21	1.499313261
0	1137	21	1.499313261
0	1192	22	1.238453745
0	1193	22	1.238453745
0	1233	23	2.238453745
0	1234	23	2.238453745
0	1261	24	1.747505259
0	1262	24	1.747505259
0	1308	25	2.747505259
0	1309	25	2.747505259
0	1361	26	1.052918049
0	1362	26	1.052918049
0	1395	27	2.052918049
0	1396	27	2.052918049
0	1476	28	0.64698041
0	1523	29	1.64698041
0	1568	30	2.64698041
0	1569	30	2.64698041
0	1606	31	0.604431672
0	1607	31	0.604431672
0	1639	32	1.604431672
0	1640	32	1.604431672
0	2063	41	0.479814575
0	2064	41	0.479814575
0	2101	42	1.479814575
0	2102	42	1.479814575
0	2161	43	0.851737745
0	2162	43	0.851737745
0	2221	44	1.851737745
0	2222	44	1.851737745
0	2437	49	0.982128341
0	2438	49	0.982128341
0	2503	50	1.982128341
0	2550	51	2.982128341
0	2551	51	1.721428508
0	2575	52	2.721428508
0	2576	52	2.721428508
0	2624	53	3.721428508
0	2625	53	0.520367623
0	2673	54	1.520367623
0	2721	55	2.520367623
0	2722	55	2.520367623
0	2829	57	0.675795837
0	2830	57	0.675795837
0	2866	58	1.675795837
0	2867	58	1.675795837
0	2895	59	2.642482725
0	2896	59	2.642482725
0	2929	60	3.642482725
0	2930	60	3.642482725
0	3202	66	0.493339398
0	3203	66	0.493339398
0	3242	67	1.493339398
0	3243	67	1.493339398
0	3327	69	0.618985929
0	3328	69	0.618985929
0	3398	70	1.618985929
0	3463	71	2.618985929
0	3614	74	0.053775955
0	3615	74	0.053775955
0	3666	75	1.053775955
0	3667	75	1.053775955
0	3948	80	0.812185271
0	3949	80	0.812185271
0	4013	81	1.812185271
0	4014	81	1.812185271
0	4058	82	1.714492807
0	4059	82	1.714492807
0	4109	83	2.714492807
0	4110	83	2.714492807
0	4155	84	0.863795615
0	4156	84	0.863795615
0	4239	85	1.863795615
0	4240	85	1.863795615
0	4304	86	1.683875396
0	4305	86	1.683875396
0	4350	87	2.683875396
0	4351	87	2.683875396
0	4385	88	3.567038142
0	4386	88	3.567038142
0	4441	89	4.567038142
0	4506	90	5.567038142
0	4507	90	4.63913384
0	4556	91	5.63913384
0	4557	91	5.63913384
0	4606	92	6.63913384
0	4653	93	6.788540791
0	4654	93	6.788540791
0	4678	94	7.788540791
0	4679	94	7.788540791
0	4705	95	6.967596858
0	4706	95	6.967596858
0	4762	96	7.967596858
0	4763	96	7.967596858
0	4791	97	7.700788823
0	4792	97	7.700788823
0	4829	98	8.700788823
0	4830	98	8.700788823
0	4909	99	3.817451903
0	4910	99	3.817451903
0	4965	100	4.817451903
0	4966	100	4.817451903
0	5030	101	5.755131664
0	5031	101	5.755131664
0	5102	102	6.755131664
0	5149	103	7.755131664
0	5150	103	4.748738302
0	5176	104	5.748738302
0	5177	104	5.748738302
0	5204	105	6.748738302
0	5205	105	4.769715565
0	5241	106	5.769715565
0	5242	106	5.769715565
0	5311	107	6.769715565
0	5312	107	5.602554706
0	5389	108	6.602554706
0	5453	109	7.602554706
0	5499	110	8.602554706
0	5500	110	8.141015024
0	5569	111	9.141015024
0	5606	112	10.141015024
0	5607	112	10.141015024
0	5675	113	5.347199868
0	5711	114	6.347199868
0	5712	114	6.347199868
0	5775	115	7.347199868
0	5776	115	7.085419184
0	5803	116	8.085419184
0	5804	116	8.085419184
0	5831	117	9.085419184
0	5832	117	6.114596283
0	5870	118	7.114596283
0	5871	118	7.114596283
0	5925	119	8.114596283
0	6072	123	0.298608291
0	6073	123	0.298608291
0	6110	124	1.298608291
0	6111	124	1.298608291
0	6156	125	0.881853391
0	6157	125	0.881853391
0	6190	126	1.881853391
0	6191	126	1.881853391
0	6305	129	0.570873677
0	6306	129	0.570873677
0	6341	130	1.570873677
0	6342	130	1.570873677
0	6439	133	0.862940157
0	6440	133	0.862940157
0	6508	134	1.862940157
0	6509	134	1.862940157
0	6579	135	1.657992133
0	6580	135	1.657992133
0	6631	136	2.657992133
0	6632	136	2.657992133
0	6701	137	2.024358984
0	6739	138	3.024358984
0	6740	138	3.024358984
0	6813	139	4.024358984
0	6814	139	2.731441666
0	6868	140	3.731441666
0	6913	141	4.731441666
0	6914	141	4.731441666
0	6955	142	1.410793234
0	6956	142	1.410793234
0	7039	143	2.410793234
0	7040	143	2.410793234
0	7113	144	1.55398386
0	7114	144	1.55398386
0	7170	145	2.55398386
0	7219	146	3.55398386
0	7220	146	2.751489715
0	7294	147	3.751489715
0	7332	148	4.751489715
0	7333	148	4.751489715
0	7374	149	5.609780012
0	7375	149	5.609780012
0	7439	150	6.609780012
0	7440	150	6.609780012
0	7472	151	5.55913253
0	7473	151	5.55913253
0	7509	152	6.55913253
0	7510	152	6.55913253
0	7537	153	1.008628588
0	7538	153	1.008628588
0	7575	154	2.008628588
0	7576	154	2.008628588
0	7683	157	0.483351059
0	7684	157	0.483351059
0	7730	158	1.483351059
0	7731	158	1.483351059
0	7897	161	0.775952648
0	7898	161	0.775952648
0	7929	162	1.775952648
0	7930	162	1.775952648
0	7969	163	0.507420348
0	7970	163	0.507420348
0	8003	164	1.507420348
0	8004	164	1.507420348
0	8317	170	0.950356543
0	8318	170	0.950356543
0	8361	171	1.950356543
0	8362	171	1.950356543
0	8571	176	0.79161997
0	8572	176	0.79161997
0	8660	177	1.79161997
0	8697	178	2.79161997
0	8698	178	1.754228513
0	8759	179	2.754228513
0	8760	179	2.754228513
0	8783	180	3.754228513
0	8784	180	1.21494683
0	8812	181	2.21494683
0	8813	181	2.21494683
0	8864	182	3.21494683
0	8865	182	3.097182236
0	8924	183	4.097182236
0	8925	183	4.097182236
0	8956	184	5.097182236
0	8957	184	1.846459381
0	9015	185	2.846459381
0	9016	185	2.846459381
0	9056	186	3.846459381
0	9177	189	0.101251774
0	9178	189	0.101251774
0	9253	190	1.101251774
0	9254	190	1.101251774
0	9375	193	0.812745543
0	9376	193	0.812745543
0	9416	194	1.812745543
0	9417	194	1.812745543
0	9450	195	1.882041085
0	9451	195	1.882041085
0	9526	196	2.882041085
0	9527	196	2.882041085
0	9579	197	3.26836738
0	9627	198	4.26836738
0	9628	198	4.26836738
0	9710	199	5.26836738
0	9711	199	4.308188451
0	9773	200	5.308188451
0	9774	200	5.308188451
0	9816	201	6.308188451
0	9817	201	5.2484576
0	9836	202	6.2484576
0	9837	202	6.2484576
0	9916	203	7.2484576
0	9917	203	4.810384994
0	9959	204	5.810384994
0	9960	204	5.810384994
0	10047	205	6.810384994
0	10140	206	7.26107563
0	10187	207	8.26107563
0	10188	207	8.26107563
0	10210	208	9.26107563
0	10211	208	8.403976315
0	10257	209	9.403976315
0	10258	209	9.403976315
0	10316	210	10.403976315
0	10317	210	10.037486834
0	10384	211	11.037486834
0	10385	211	11.037486834
0	10433	212	12.037486834
0	10434	212	9.989725476
0	10517	213	10.989725476
0	10572	214	11.989725476
0	10573	214	11.989725476
0	10640	215	12.732770396
0	10641	215	12.732770396
0	10672	216	13.732770396
0	10673	216	13.732770396
0	10731	217	12.924155396
0	10732	217	12.924155396
0	10781	218	13.924155396
0	10782	218	13.924155396
0	10814	219	14.616301629
0	10815	219	14.616301629
0	10870	220	15.616301629
0	10871	220	15.616301629
0	10924	221	16.538449295
0	10925	221	16.538449295
0	10969	222	17.538449295
0	10970	222	17.538449295
0	11016	223	17.903109513
0	11017	223	17.903109513
0	11044	224	18.903109513
0	11045	224	18.903109513
0	11085	225	19.850177933
0	11086	225	19.850177933
0	11126	226	20.850177933
0	11127	226	20.850177933
0	11167	227	20.524241271
0	11168	227	20.524241271
0	11217	228	21.524241271
0	11218	228	21.524241271
0	11284	229	19.116807942
0	11285	229	19.116807942
0	11342	230	20.116807942
0	11399	231	21.116807942
0	11400	231	19.621194904
0	11471	232	20.621194904
0	11472	232	20.621194904
0	11554	233	21.621194904
0	11555	233	20.215388842
0	11622	234	21.215388842
0	11623	234	21.215388842
0	11674	235	22.215388842
0	11731	236	22.475720824
0	11732	236	22.475720824
0	11777	237	23.475720824
0	11778	237	23.475720824
0	11809	238	24.148563485
0	11810	238	24.148563485
0	11850	239	25.148563485
0	11851	239	25.148563485
0	11910	240	23.009141331
0	11911	240	23.009141331
0	11947	241	24.009141331
0	11948	241	24.009141331
0	11979	242	19.352864322
0	11980	242	19.352864322
0	12039	243	20.352864322
0	12040	243	20.352864322
0	12095	244	17.234774314
0	12096	244	17.234774314
0	12196	245	18.234774314
0	12197	245	18.234774314
0	12242	246	18.657894722
0	12243	246	18.657894722
0	12279	247	19.657894722
0	12308	248	20.657894722
0	12309	248	19.954380386
0	12358	249	20.954380386
0	12359	249	20.954380386
0	12419	250	21.954380386
0	12420	250	21.148954469
0	12476	251	22.148954469
0	12477	251	22.148954469
0	12519	252	23.148954469
0	12520	252	19.566153014
0	12581	253	20.566153014
0	12582	253	20.566153014
0	12627	254	21.566153014
0	12628	254	21.13207333
0	12694	255	22.13207333
0	12695	255	22.13207333
0	12730	256	23.13207333
0	12731	256	20.544849755
0	12760	257	21.544849755
0	12761	257	21.544849755
0	12797	258	22.544849755
0	12798	258	21.416506588
0	12845	259	22.416506588
0	12891	260	23.416506588
0	12892	260	23.416506588
0	12962	261	21.053550975
0	13054	262	22.053550975
0	13110	263	23.053550975
0	13139	264	24.053550975
0	13140	264	23.342273896
0	13211	265	24.342273896
0	13249	266	25.342273896
0	13295	267	26.342273896
0	13296	267	23.546329029
0	13356	268	24.546329029
0	13357	268	24.546329029
0	13399	269	25.546329029
0	13400	269	23.556444607
0	13470	270	24.556444607
0	13471	270	24.556444607
0	13526	271	25.556444607
0	13527	271	21.846575939
0	13592	272	22.846575939
0	13649	273	23.846575939
0	13650	273	23.846575939
0	13713	274	23.463747886
0	13714	274	23.463747886
0	13764	275	24.463747886
0	13765	275	24.463747886
0	13819	276	23.911296733
0	13820	276	23.911296733
0	13874	277	24.911296733
0	13875	277	24.911296733
0	13933	278	22.034367537
0	13970	279	23.034367537
0	13971	279	23.034367537
0	14025	280	24.034367537
0	14026	280	19.09051269
0	14068	281	20.09051269
0	14103	282	21.09051269
0	14104	282	21.09051269
0	14161	283	21.125156626
0	14227	284	22.125156626
0	14228	284	22.125156626
0	14291	285	23.125156626
0	14292	285	22.711895261
0	14343	286	23.711895261
0	14389	287	24.711895261
0	14390	287	24.711895261
0	14436	288	16.306983946
0	14437	288	16.306983946
0	14455	289	17.306983946
0	14456	289	17.306983946
0	14492	290	17.844392509
0	14493	290	17.844392509
0	14530	291	18.844392509
0	14531	291	18.844392509
0	14581	292	15.786391318
0	14582	292	15.786391318
0	14637	293	16.786391318
0	14638	293	16.786391318
0	14661	294	14.058589528
0	14662	294	14.058589528
0	14702	295	15.058589528
0	14703	295	15.058589528
0	14752	296	14.107343555
0	14753	296	14.107343555
0	14806	297	15.107343555
0	14807	297	15.107343555
0	14860	298	13.6875552
0	14861	298	13.6875552
0	14887	299	14.6875552
0	14888	299	14.6875552
0	14954	300	12.888068014
0	14955	300	12.888068014
0	14986	301	13.888068014
0	14987	301	13.888068014
0	15045	302	14.151926323
0	15046	302	14.151926323
0	15086	303	15.151926323
0	15087	303	15.151926323
0	15117	304	12.680818146
0	15118	304	12.680818146
0	15154	305	13.680818146
0	15155	305	13.680818146
0	15183	306	13.642624029
0	15184	306	13.642624029
0	15224	307	14.642624029
0	15225	307	14.642624029
0	15255	308	13.254548531
0	15256	308	13.254548531
0	15293	309	14.254548531
0	15294	309	14.254548531
0	15317	310	13.324365921
0	15318	310	13.324365921
0	15345	311	14.324365921
0	15346	311	14.324365921
0	15392	312	14.360820372
0	15393	312	14.360820372
0	15436	313	15.360820372
0	15437	313	15.360820372
0	15460	314	14.898415091
0	15461	314	14.898415091
0	15505	315	15.898415091
0	15506	315	15.898415091
0	15553	316	16.340934043
0	15598	317	17.340934043
0	15599	317	17.340934043
0	15624	318	18.340934043
0	15625	318	18.191799788
0	15659	319	19.191799788
0	15660	319	19.191799788
0	15728	320	20.191799788
0	15729	320	19.330679023
0	15775	321	20.330679023
0	15776	321	20.330679023
0	15822	322	21.330679023
0	15823	322	18.805083374
0	15885	323	19.805083374
0	15886	323	19.805083374
0	15934	324	20.805083374
0	15935	324	17.799015751
0	15984	325	18.799015751
0	15985	325	18.799015751
0	16035	326	19.799015751
0	16036	326	18.501982023
0	16074	327	19.501982023
0	16075	327	19.501982023
0	16117	328	20.501982023
0	16118	328	19.022178639
0	16162	329	20.022178639
0	16163	329	20.022178639
0	16215	330	21.022178639
0	16216	330	15.700639899
0	16263	331	16.700639899
0	16264	331	16.700639899
0	16298	332	17.700639899
0	16299	332	12.739233971
0	16387	333	13.739233971
0	16388	333	13.739233971
0	16438	334	14.739233971
0	16439	334	11.997659048
0	16498	335	12.997659048
0	16499	335	12.997659048
0	16517	336	13.997659048
0	16518	336	13.326383227
0	16546	337	14.326383227
0	16547	337	14.326383227
0	16588	338	15.326383227
0	16589	338	13.117325493
0	16645	339	14.117325493
0	16672	340	15.117325493
0	16673	340	15.117325493
0	16720	341	12.665490771
0	16721	341	12.665490771
0	16755	342	13.665490771
0	16756	342	13.665490771
0	16794	343	13.400233567
0	16795	343	13.400233567
0	16843	344	14.400233567
0	16844	344	14.400233567
0	16900	345	14.954617902
0	16901	345	14.954617902
0	16966	346	15.954617902
0	17014	347	16.954617902
0	17015	347	14.472624949
0	17078	348	15.472624949
0	17079	348	15.472624949
0	17144	349	16.472624949
0	17202	350	15.206862392
0	17242	351	16.206862392
0	17243	351	16.206862392
0	17308	352	17.206862392
0	17309	352	8.547472108
0	17374	353	9.547472108
0	17423	354	10.547472108
0	17479	355	11.547472108
0	17480	355	10.444203443
0	17531	356	11.444203443
0	17604	357	12.444203443
0	17605	357	12.444203443
0	17640	358	3.268637194
0	17641	358	3.268637194
0	17691	359	4.268637194
0	17692	359	4.268637194
0	17775	360	0.770371759
0	17805	361	1.770371759
0	17806	361	1.770371759
0	17830	362	2.770371759
0	17831	362	2.023882565
0	17871	363	3.023882565
0	17925	364	4.023882565
0	17926	364	4.023882565
0	17973	365	0.41389583
0	17974	365	0.41389583
0	18002	366	1.41389583
0	18003	366	1.41389583
0	18025	367	2.156259676
0	18026	367	2.156259676
0	18059	368	3.156259676
0	18060	368	3.156259676
0	18138	369	3.766846093
0	18185	370	4.766846093
0	18186	370	4.766846093
0	18249	371	5.766846093
0	18250	371	1.602067033
0	18318	372	2.602067033
0	18353	373	3.602067033
0	18354	373	3.602067033
0	18505	378	0.795325146
0	18506	378	0.795325146
0	18535	379	1.795325146
0	18536	379	1.795325146
0	18590	380	1.176733981
0	18591	380	1.176733981
0	18668	381	2.176733981
0	18669	381	2.176733981
0	18739	382	1.706453085
0	18740	382	1.706453085
0	18764	383	2.706453085
0	18765	383	2.706453085
0	18799	384	2.190910004
0	18800	384	2.190910004
0	18842	385	3.190910004
0	18843	385	3.190910004
0	18861	386	1.848581867
0	18862	386	1.848581867
0	18908	387	2.848581867
0	18909	387	2.848581867
0	18933	388	1.059647324
0	18934	388	1.059647324
0	18968	389	2.059647324
0	18969	389	2.059647324
0	19003	391	0.974573068
0	19004	391	0.974573068
0	19045	392	1.974573068
0	19046	392	1.974573068
0	19128	393	1.570050092
0	19183	394	2.570050092
0	19247	395	3.570050092
0	19248	395	3.570050092
0	19300	396	3.730756554
0	19301	396	3.730756554
0	19348	397	4.730756554
0	19349	397	4.730756554
0	19377	398	4.948258938
0	19378	398	4.948258938
0	19432	399	5.948258938
0	19433	399	5.948258938
0	19494	400	5.445328214
0	19495	400	5.445328214
0	19516	401	6.445328214
0	19517	401	6.445328214
0	19550	402	7.336781447
0	19551	402	7.336781447
0	19569	403	8.336781447
0	19570	403	8.336781447
0	19605	404	6.477738935
0	19606	404	6.477738935
0	19668	405	7.477738935
0	19669	405	7.477738935
0	19733	406	7.965963956
0	19734	406	7.965963956
0	19769	407	8.965963956
0	19770	407	8.965963956
0	19838	408	2.813860106
0	19902	409	3.813860106
0	19903	409	3.813860106
0	19945	410	4.813860106
0	20025	411	0.775921654
0	20071	412	1.775921654
0	20072	412	1.775921654
0	20147	413	2.775921654
0	20192	414	3.329082429
0	20193	414	3.329082429
0	20245	415	4.329082429
0	20246	415	4.329082429
0	20292	416	3.980034652
0	20293	416	3.980034652
0	20340	417	4.980034652
0	20341	417	4.980034652
0	20423	418	2.398348204
0	20424	418	2.398348204
0	20458	419	3.398348204
0	20459	419	3.398348204
0	20487	420	2.7774381
0	20488	420	2.7774381
0	20525	421	3.7774381
0	20526	421	3.7774381
0	20552	422	4.095491104
0	20553	422	4.095491104
0	20609	423	5.095491104
0	20610	423	5.095491104
0	20668	424	3.615828839
0	20669	424	3.615828839
0	20725	425	4.615828839
0	20764	426	5.615828839
0	20765	426	3.71581552
0	20801	427	4.71581552
0	20802	427	4.71581552
0	20890	428	5.71581552
0	20947	429	6.083875376
0	21022	430	7.083875376
0	21023	430	7.083875376
0	21076	431	8.083875376
0	21077	431	3.99925479
0	21114	432	4.99925479
0	21115	432	4.99925479
0	21174	433	5.99925479
0	21175	433	3.779132928
0	21230	434	4.779132928
0	21266	435	5.779132928
0	21267	435	5.779132928
0	21345	436	6.215922305
0	21403	437	7.215922305
0	21433	438	8.215922305
0	21434	438	8.215922305
0	21467	439	0.021247747
0	21468	439	0.021247747
0	21505	440	1.021247747
0	21506	440	1.021247747
0	21643	444	0.315844392
0	21644	444	0.315844392
0	21695	445	1.315844392
0	21696	445	1.315844392
0	21778	447	0.605818882
0	21779	447	0.605818882
0	21816	448	1.605818882
0	21817	448	1.605818882
0	21941	452	0.879156164
0	21942	452	0.879156164
0	21998	453	1.879156164
0	22054	454	2.879156164
0	22128	455	1.983246845
0	22129	455	1.983246845
0	22172	456	2.983246845
0	22173	456	2.983246845
0	22191	457	2.617502825
0	22192	457	2.617502825
0	22237	458	3.617502825
0	22238	458	3.617502825
0	22274	459	1.962776391
0	22275	459	1.962776391
0	22299	460	2.962776391
0	22300	460	2.962776391
0	22353	461	3.611411597
0	22354	461	3.611411597
0	22397	462	4.611411597
0	22398	462	4.611411597
0	22433	463	4.897449348
0	22434	463	4.897449348
0	22481	464	5.897449348
0	22482	464	5.897449348
0	22514	465	0.703587579
0	22515	465	0.703587579
0	22540	466	1.703587579
0	22541	466	1.703587579
0	22613	469	0.742622747
0	22614	469	0.742622747
0	22664	470	1.742622747
0	22665	470	1.742622747
0	22712	471	1.871151971
0	22713	471	1.871151971
0	22758	472	2.871151971
0	22759	472	2.871151971
0	22804	473	2.567014601
0	22805	473	2.567014601
0	22840	474	3.567014601
0	22841	474	3.567014601
0	22893	475	3.822722943
0	22894	475	3.822722943
0	22946	476	4.822722943
0	22947	476	4.822722943
0	22989	477	5.263296015
0	22990	477	5.263296015
0	23062	478	6.263296015
0	23063	478	6.263296015
0	23128	479	6.210018398
0	23165	480	7.210018398
0	23166	480	7.210018398
0	23210	481	8.210018398
0	23211	481	7.876771428
0	23225	482	8.876771428
0	23226	482	8.876771428
0	23259	483	9.876771428
0	23260	483	5.085632189
0	23307	484	6.085632189
0	23308	484	6.085632189
0	23361	485	7.085632189
0	23362	485	5.350075483
0	23421	486	6.350075483
0	23422	486	6.350075483
0	23442	487	7.350075483
0	23443	487	6.50306168
0	23488	488	7.50306168
0	23489	488	7.50306168
0	23516	489	8.50306168
0	23517	489	4.323787447
0	23554	490	5.323787447
0	23555	490	5.323787447
0	23606	491	6.323787447
0	23607	491	3.056137806
0	23659	492	4.056137806
0	23660	492	4.056137806
0	23721	493	5.056137806
0	23722	493	3.295324271
0	23776	494	4.295324271
0	23777	494	4.295324271
0	23817	495	5.295324271
0	23818	495	4.474330111
0	23858	496	5.474330111
0	23859	496	5.474330111
0	23919	497	6.474330111
0	23920	497	4.875651264
0	23980	498	5.875651264
0	23981	498	5.875651264
0	24023	499	6.875651264
0	24057	500	6.00619794
0	24058	500	6.00619794
0	24090	501	7.00619794
0	24091	501	7.00619794
0	24134	502	7.542694934
0	24135	502	7.542694934
0	24178	503	8.542694934
0	24179	503	8.542694934
0	24200	504	8.425672149
0	24201	504	8.425672149
0	24234	505	9.425672149
0	24235	505	9.425672149
0	24271	506	9.665359798
0	24272	506	9.665359798
0	24318	507	10.665359798
0	24319	507	10.665359798
0	24351	508	6.122911679
0	24352	508	6.122911679
0	24423	509	7.122911679
0	24424	509	7.122911679
0	24492	510	3.818667399
0	24548	511	4.818667399
0	24632	512	5.818667399
0	24671	513	6.818667399
0	24717	514	5.094599467
0	24718	514	5.094599467
0	24743	515	6.094599467
0	24744	515	6.094599467
0	24782	516	4.677138365
0	24783	516	4.677138365
0	24820	517	5.677138365
0	24821	517	5.677138365
0	24872	518	6.566551458
0	24873	518	6.566551458
0	24954	519	7.566551458
0	24955	519	7.566551458
0	25028	520	4.533432212
0	25066	521	5.533432212
0	25067	521	5.533432212
0	25093	522	6.533432212
0	25094	522	3.231141992
0	25150	523	4.231141992
0	25151	523	4.231141992
0	25187	524	5.231141992
0	25188	524	4.086936692
0	25255	525	5.086936692
0	25329	526	6.086936692
0	25330	526	6.086936692
0	25374	527	4.373804499
0	25375	527	4.373804499
0	25408	528	5.373804499
0	25409	528	5.373804499
0	25468	529	3.984773727
0	25469	529	3.984773727
0	25528	530	4.984773727
0	25529	530	4.984773727
0	25556	531	5.947837645
0	25557	531	5.947837645
0	25585	532	6.947837645
0	25586	532	6.947837645
0	25648	533	7.481633853
0	25649	533	7.481633853
0	25694	534	8.481633853
0	25695	534	8.481633853
0	25742	535	6.470003199
0	25743	535	6.470003199
0	25772	536	7.470003199
0	25773	536	7.470003199
0	25820	537	8.037064984
0	25821	537	8.037064984
0	25882	538	9.037064984
0	25883	538	9.037064984
0	25935	539	9.82804933
0	25971	540	10.82804933
0	25972	540	10.82804933
0	26016	541	11.82804933
0	26017	541	8.428039512
0	26061	542	9.428039512
0	26062	542	9.428039512
0	26125	543	10.428039512
0	26126	543	4.915252299
0	26147	544	5.915252299
0	26148	544	5.915252299
0	26191	545	6.915252299
0	26192	545	2.666181139
0	26234	546	3.666181139
0	26277	547	4.666181139
0	26278	547	4.666181139
0	26302	548	1.701232944
0	26303	548	1.701232944
0	26367	549	2.701232944
0	26368	549	2.701232944
0	26410	550	1.946336611
0	26411	550	1.946336611
0	26462	551	2.946336611
0	26463	551	2.946336611
0	26504	552	0.102771559
0	26505	552	0.102771559
0	26543	553	1.102771559
0	26544	553	1.102771559
0	26879	559	0.850047078
0	26880	559	0.850047078
0	26881	559	0.850047078
0	26934	560	1.850047078
0	26935	560	0.170479403
0	26975	561	1.170479403
0	26976	561	1.170479403
0	27009	562	2.170479403
0	27125	565	0.240335344
0	27126	565	0.240335344
0	27187	566	1.240335344
0	27188	566	1.240335344
0	27740	581	0.076170221
0	27741	581	0.076170221
0	27742	581	0.076170221
0	27743	581	0.076170221
0	27818	583	0.132587758
0	27819	583	0.132587758
0	27855	584	1.132587758
0	27856	584	1.132587758
0	27920	585	0.363178411
0	27956	586	1.363178411
0	27957	586	1.363178411
0	27998	587	2.363178411
0	27999	587	0.255130086
0	28028	588	1.255130086
0	28029	588	1.255130086
0	28083	589	2.255130086
0	28084	589	0.505340443
0	28142	590	1.505340443
0	28143	590	1.505340443
0	28206	591	2.505340443
0	28207	591	2.476696835
0	28307	592	3.476696835
0	28308	592	3.476696835
0	28399	593	4.476696835
0	28544	596	0.794700334
0	28545	596	0.794700334
0	28580	597	1.794700334
0	28581	597	1.794700334
0	28820	602	0.478618619
0	28821	602	0.478618619
0	28894	603	1.478618619
0	28942	604	2.478618619
0	29008	605	2.837519398
0	29009	605	2.837519398
0	29042	606	3.837519398
0	29043	606	3.837519398
0	29100	607	2.657692157
0	29101	607	2.657692157
0	29150	608	3.657692157
0	29151	608	3.657692157
0	29188	609	4.160129805
0	29189	609	4.160129805
0	29281	610	5.160129805
0	29282	610	5.160129805
0	29327	611	5.784510553
0	29328	611	5.784510553
0	29378	612	6.784510553
0	29415	613	7.784510553
0	29416	613	6.915887009
0	29475	614	7.915887009
0	29476	614	7.915887009
0	29512	615	8.915887009
0	29513	615	8.550451888
0	29563	616	9.550451888
0	29564	616	9.550451888
0	29616	617	10.550451888
0	29617	617	9.131978783
0	29645	618	10.131978783
0	29646	618	10.131978783
0	29666	619	11.131978783
0	29667	619	10.102375786
0	29713	620	11.102375786
0	29714	620	11.102375786
0	29801	621	12.102375786
0	29849	622	11.326592106
0	29850	622	11.326592106
0	29912	623	12.326592106
0	29913	623	12.326592106
0	29984	624	10.84474438
0	29985	624	10.84474438
0	30020	625	11.84474438
0	30021	625	11.84474438
0	30070	626	12.779557411
0	30071	626	12.779557411
0	30123	627	13.779557411
0	30124	627	13.779557411
0	30169	628	11.185171199
0	30170	628	11.185171199
0	30212	629	12.185171199
0	30213	629	12.185171199
0	30263	630	9.415888265
0	30264	630	9.415888265
0	30329	631	10.415888265
0	30385	632	11.415888265
0	30386	632	10.183271518
0	30459	633	11.183271518
0	30460	633	11.183271518
0	30506	634	12.183271518
0	30507	634	11.692975244
0	30553	635	12.692975244
0	30554	635	12.692975244
0	30609	636	13.692975244
0	30610	636	10.079401617
0	30673	637	11.079401617
0	30674	637	11.079401617
0	30719	638	12.079401617
0	30720	638	10.603048501
0	30768	639	11.603048501
0	30769	639	11.603048501
0	30837	640	12.603048501
0	30902	641	11.377622994
0	30903	641	11.377622994
0	30985	642	12.377622994
0	31050	643	13.377622994
0	31078	644	10.545469426
0	31079	644	10.545469426
0	31128	645	11.545469426
0	31129	645	11.545469426
0	31151	646	9.690154986
0	31152	646	9.690154986
0	31201	647	10.690154986
0	31202	647	10.690154986
0	31252	648	7.700850326
0	31253	648	7.700850326
0	31290	649	8.700850326
0	31291	649	8.700850326
0	31318	650	5.781111976
0	31319	650	5.781111976
0	31376	651	6.781111976
0	31377	651	6.781111976
0	31419	652	7.240150489
0	31420	652	7.240150489
0	31470	653	8.240150489
0	31471	653	8.240150489
0	31507	654	3.896712697
0	31508	654	3.896712697
0	31563	655	4.896712697
0	31618	656	5.896712697
0	31619	656	3.852299368
0	31673	657	4.852299368
0	31674	657	4.852299368
0	31704	658	5.852299368
0	31705	658	5.153966059
0	31757	659	6.153966059
0	31758	659	6.153966059
0	31819	660	7.153966059
0	31820	660	6.788384365
0	31896	661	7.788384365
0	31978	662	8.788384365
0	32033	663	9.788384365
0	32034	663	8.793833458
0	32069	664	9.793833458
0	32070	664	9.793833458
0	32131	665	10.793833458
0	32132	665	8.53277921
0	32191	666	9.53277921
0	32192	666	9.53277921
0	32231	667	10.53277921
0	32232	667	9.682422684
0	32255	668	10.682422684
0	32256	668	10.682422684
0	32302	669	11.682422684
0	32303	669	10.774354816
0	32335	670	11.774354816
0	32336	670	11.774354816
0	32353	671	12.774354816
0	32354	671	11.818927175
0	32378	672	12.818927175
0	32379	672	12.818927175
0	32426	673	13.818927175
0	32427	673	12.471617846
0	32475	674	13.471617846
0	32476	674	13.471617846
0	32517	675	14.471617846
0	32518	675	14.381154501
0	32564	676	15.381154501
0	32565	676	15.381154501
0	32644	677	16.381154501
0	32708	678	16.018218477
0	32709	678	16.018218477
0	32734	679	17.018218477
0	32735	679	17.018218477
0	32774	680	14.753984274
0	32775	680	14.753984274
0	32806	681	15.753984274
0	32807	681	15.753984274
0	32836	682	13.687132313
0	32837	682	13.687132313
0	32856	683	14.687132313
0	32857	683	14.687132313
0	32921	684	14.956789617
0	32959	685	15.956789617
0	32960	685	15.956789617
0	33022	686	16.956789617
0	33023	686	9.160228443
0	33086	687	10.160228443
0	33087	687	10.160228443
0	33128	688	11.160228443
0	33129	688	10.589585106
0	33198	689	11.589585106
0	33199	689	11.589585106
0	33240	690	12.589585106
0	33241	690	6.172171922
0	33287	691	7.172171922
0	33288	691	7.172171922
0	33320	692	8.172171922
0	33321	692	6.460712436
0	33349	693	7.460712436
0	33350	693	7.460712436
0	33400	694	8.460712436
0	33466	695	8.439469205
0	33513	696	9.439469205
0	33514	696	9.439469205
0	33536	697	10.439469205
0	33537	697	9.990524863
0	33593	698	10.990524863
0	33649	699	11.990524863
0	33650	699	11.990524863
0	33714	700	11.197915993
0	33715	700	11.197915993
0	33770	701	12.197915993
0	33835	702	13.197915993
0	33836	702	6.998325905
0	33880	703	7.998325905
0	33881	703	7.998325905
0	33911	704	8.998325905
0	33912	704	4.309692876
0	33944	705	5.309692876
0	33945	705	5.309692876
0	33986	706	6.309692876
0	33987	706	4.873028407
0	34024	707	5.873028407
0	34025	707	5.873028407
0	34095	708	6.873028407
0	34176	709	7.18929249
0	34177	709	7.18929249
0	34220	710	8.18929249
0	34277	711	9.18929249
0	34325	712	10.042685917
0	34326	712	10.042685917
0	34360	713	11.042685917
0	34361	713	11.042685917
0	34386	714	10.828857747
0	34387	714	10.828857747
0	34409	715	11.828857747
0	34410	715	11.828857747
0	34454	716	11.405480006
0	34455	716	11.405480006
0	34483	717	12.405480006
0	34484	717	12.405480006
0	34547	718	11.59205658
0	34601	719	12.59205658
0	34602	719	12.59205658
0	34632	720	13.59205658
0	34633	720	12.764700566
0	34678	721	13.764700566
0	34679	721	13.764700566
0	34761	722	14.764700566
0	34806	723	10.313930075
0	34807	723	10.313930075
0	34848	724	11.313930075
0	34849	724	11.313930075
0	34932	725	11.849279943
0	34933	725	11.849279943
0	35015	726	12.849279943
0	35016	726	12.849279943
0	35079	727	8.169360041
0	35080	727	8.169360041
0	35159	728	9.169360041
0	35160	728	9.169360041
0	35224	729	7.773314638
0	35225	729	7.773314638
0	35307	730	8.773314638