version 3
run Sched1-0-20250301-18:59:04-14732
attr configname Sched1
attr datetime 20250301-18:59:04
attr datetimef 20250301-185904
attr experiment Sched1
attr inifile omnetpp.ini
attr iterationvars ""
attr iterationvarsd ""
attr iterationvarsf ""
attr measurement ""
attr network RadioSch2
attr processid 14732
attr repetition 0
attr replication #0
attr resultdir results
attr runnumber 0
attr seedset 0
config description "low job arrival rate"
config *.scalar-recording true
config *.vector-recording true
config **.user[*].generator.sendIaTime "0.2 ms"
config *.user[*].generator.networkLoad 0.5
config *.user[*].generator.packetsPerUser 4
config *.user[*].generator.channels 14
config *.user[*].generator.usersCount 7
config *.user[*].generator.MAX_Sim "10 s"
config *.usersCount 7
config network RadioSch2
config sim-time-limit 100h
config cpu-time-limit 300s
config simtime-resolution ns
config record-eventlog true

vector 0 RadioSch2.sink lifetime_user0:vector ETV
attr interpolationmode none
attr recordingmode vector
attr title "User 0 Packet Lifetime"
attr unit s
vector 1 RadioSch2.sink lifetime_user1:vector ETV
attr interpolationmode none
attr recordingmode vector
attr title "User 1 Packet Lifetime"
attr unit s
vector 2 RadioSch2.sink lifetime_user2:vector ETV
attr interpolationmode none
attr recordingmode vector
attr title "User 2 Packet Lifetime"
attr unit s
vector 3 RadioSch2.sink lifetime_user3:vector ETV
attr interpolationmode none
attr recordingmode vector
attr title "User 3 Packet Lifetime"
attr unit s
vector 4 RadioSch2.sink lifetime_user4:vector ETV
attr interpolationmode none
attr recordingmode vector
attr title "User 4 Packet Lifetime"
attr unit s
vector 5 RadioSch2.sink lifetime_user5:vector ETV
attr interpolationmode none
attr recordingmode vector
attr title "User 5 Packet Lifetime"
attr unit s
vector 6 RadioSch2.sink lifetime_user6:vector ETV
attr interpolationmode none
attr recordingmode vector
attr title "User 6 Packet Lifetime"
attr unit s
vector 7 RadioSch2.flc "delay vector" ETV
vector 8 RadioSch2.flc "result nescalat" ETV
vector 9 RadioSch2.flc "res scalat" ETV
vector 10 RadioSch2.flc "weight vector" ETV
0	86	1	1
0	134	2	2
0	135	2	2
0	190	3	3
0	305	9	0.105902312
0	306	9	0.105902312
0	307	9	0.105902312
0	308	9	0.105902312
0	336	10	0.85744115
0	337	10	0.85744115
0	375	11	1.85744115
0	376	11	1.85744115
0	395	12	2.305326396
0	396	12	2.305326396
0	420	13	3.305326396
0	421	13	3.305326396
0	519	16	0.749155637
0	520	16	0.749155637
0	534	17	1.749155637
0	535	17	1.749155637
0	558	18	0.34936809
0	559	18	0.34936809
0	582	19	1.34936809
0	583	19	1.34936809
0	779	28	0.333720958
0	780	28	0.333720958
0	819	29	1.333720958
0	820	29	1.333720958
0	1234	41	0.831847527
0	1235	41	0.831847527
0	1236	41	0.831847527
0	1287	42	1.831847527
0	1288	42	1.112018161
0	1321	43	2.112018161
0	1322	43	2.112018161
0	1349	44	3.112018161
0	1350	44	2.905286538
0	1392	45	3.905286538
0	1393	45	3.905286538
0	1425	46	4.905286538
0	1426	46	0.358900557
0	1470	47	1.358900557
0	1471	47	1.358900557
0	1500	48	2.358900557
0	1527	49	0.230997673
0	1528	49	0.230997673
0	1566	50	1.230997673
0	1567	50	1.230997673
0	1848	59	0.839622627
0	1849	59	0.839622627
0	1850	59	0.839622627
0	1864	60	1.839622627
0	1965	63	0.31594871
0	1966	63	0.31594871
0	2004	64	1.31594871
0	2005	64	1.31594871
0	2203	70	0.894113658
0	2204	70	0.894113658
0	2233	71	1.894113658
0	2234	71	1.894113658
0	2314	75	0.721522223
0	2315	75	0.721522223
0	2344	76	1.721522223
0	2345	76	1.721522223
0	2553	82	0.706663643
0	2554	82	0.706663643
0	2603	83	1.706663643
0	2604	83	1.706663643
0	2619	84	1.877922914
0	2620	84	1.877922914
0	2659	85	2.877922914
0	2660	85	2.877922914
0	2786	89	0.432594918
0	2787	89	0.432594918
0	2831	90	1.432594918
0	2832	90	1.432594918
0	2884	91	1.235281388
0	2885	91	1.235281388
0	2953	92	2.235281388
0	3034	93	3.235281388
0	3035	93	0.888206161
0	3075	94	1.888206161
0	3076	94	1.888206161
0	3097	95	2.888206161
0	3098	95	2.606198368
0	3154	96	3.606198368
0	3155	96	3.606198368
0	3187	97	4.606198368
0	3188	97	1.459962
0	3244	98	2.459962
0	3245	98	2.459962
0	3278	99	3.459962
0	3279	99	1.959714228
0	3305	100	2.959714228
0	3306	100	2.959714228
0	3350	101	3.959714228
0	3351	101	1.726407071
0	3393	102	2.726407071
0	3394	102	2.726407071
0	3433	103	3.726407071
0	3617	111	0.64982914
0	3618	111	0.64982914
0	3657	112	1.64982914
0	3658	112	1.64982914
0	3682	113	1.452417128
0	3683	113	1.452417128
0	3716	114	2.452417128
0	3717	114	2.452417128
0	3980	126	0.416162924
0	3981	126	0.416162924
0	3982	126	0.416162924
0	3983	126	0.416162924
0	4143	133	0.842749983
0	4144	133	0.842749983
0	4160	134	1.842749983
0	4161	134	1.842749983
0	4288	137	0.913797245
0	4289	137	0.913797245
0	4335	138	1.913797245
0	4336	138	1.913797245
0	4379	139	1.526081712
0	4380	139	1.526081712
0	4415	140	2.526081712
0	4416	140	2.526081712
0	4445	141	2.18978138
0	4446	141	2.18978138
0	4493	142	3.18978138
0	4494	142	3.18978138
0	4536	143	1.928760255
0	4537	143	1.928760255
0	4564	144	2.928760255
0	4565	144	2.928760255
0	4584	145	0.607717668
0	4585	145	0.607717668
0	4595	146	1.607717668
0	4596	146	1.607717668
0	4631	148	0.04430246
0	4632	148	0.04430246
0	4660	149	1.04430246
0	4661	149	1.04430246
0	4682	150	1.666035514
0	4683	150	1.666035514
0	4713	151	2.666035514
0	4714	151	2.666035514
0	5166	166	0.884961034
0	5167	166	0.884961034
0	5168	166	0.884961034
0	5199	167	1.884961034
0	5601	183	0.404962028
0	5602	183	0.404962028
0	5603	183	0.404962028
0	5604	183	0.404962028
0	5688	186	0.763066451
0	5689	186	0.763066451
0	5727	187	1.763066451
0	5728	187	1.763066451
0	5785	188	1.401153685
0	5786	188	1.401153685
0	5847	189	2.401153685
0	5848	189	2.401153685
0	5921	191	0.621081723
0	5922	191	0.621081723
0	5937	192	1.621081723
0	5938	192	1.621081723
0	6263	201	0.767103206
0	6264	201	0.767103206
0	6265	201	0.767103206
0	6330	202	1.767103206
0	6331	202	0.925435593
0	6385	203	1.925435593
0	6420	204	2.925435593
0	6421	204	2.925435593
0	6497	206	0.31038054
0	6532	207	1.31038054
0	6533	207	1.31038054
0	6579	208	2.31038054
0	6741	215	0.959619487
0	6742	215	0.959619487
0	6807	216	1.959619487
0	6808	216	1.959619487
0	6842	217	2.674271461
0	6843	217	2.674271461
0	6869	218	3.674271461
0	6870	218	3.674271461
0	6892	219	3.562619274
0	6893	219	3.562619274
0	6917	220	4.562619274
0	6918	220	4.562619274
0	6964	221	0.358168723
0	6965	221	0.358168723
0	7000	222	1.358168723
0	7001	222	1.358168723
0	7158	230	0.043265174
0	7159	230	0.043265174
0	7219	231	1.043265174
0	7220	231	1.043265174
0	7255	232	1.91870144
0	7256	232	1.91870144
0	7284	233	2.91870144
0	7285	233	2.91870144
0	7317	234	3.463909326
0	7318	234	3.463909326
0	7333	235	4.463909326
0	7334	235	4.463909326
0	7343	236	4.107758015
0	7344	236	4.107758015
0	7370	237	5.107758015
0	7371	237	5.107758015
0	8005	257	0.198029343
0	8006	257	0.198029343
0	8047	258	1.198029343
0	8048	258	1.198029343
0	8091	259	1.88663652
0	8092	259	1.88663652
0	8125	260	2.88663652
0	8126	260	2.88663652
0	8177	261	2.048064408
0	8222	262	3.048064408
0	8223	262	3.048064408
0	8271	263	4.048064408
0	8316	264	0.979307237
0	8317	264	0.979307237
0	8356	265	1.979307237
0	8357	265	1.979307237
0	8837	281	0.367649673
0	8838	281	0.367649673
0	8890	282	1.367649673
0	8891	282	1.367649673
0	8947	283	1.925102649
0	8948	283	1.925102649
0	8982	284	2.925102649
0	8983	284	2.925102649
0	9043	286	0.560178983
0	9044	286	0.560178983
0	9093	287	1.560178983
0	9094	287	1.560178983
0	9146	288	2.420794797
0	9147	288	2.420794797
0	9170	289	3.420794797
0	9171	289	3.420794797
0	9191	290	3.914381275
0	9192	290	3.914381275
0	9207	291	4.914381275
0	9208	291	4.914381275
0	9320	297	0.990388171
0	9321	297	0.990388171
0	9339	298	1.990388171
0	9340	298	1.990388171
0	9519	305	0.917317364
0	9520	305	0.917317364
0	9521	305	0.917317364
0	9542	306	1.917317364
0	9581	307	0.037835261
0	9582	307	0.037835261
0	9618	308	1.037835261
0	9619	308	1.037835261
0	9650	309	1.68610188
0	9651	309	1.68610188
0	9706	310	2.68610188
0	9707	310	2.68610188
0	9722	311	1.812082069
0	9723	311	1.812082069
0	9774	312	2.812082069
0	9775	312	2.812082069
0	9815	313	1.278829364
0	9816	313	1.278829364
0	9836	314	2.278829364
0	9837	314	2.278829364
0	9965	320	0.318081842
0	9966	320	0.318081842
0	10006	321	1.318081842
0	10007	321	1.318081842
0	10212	329	0.586576319
0	10213	329	0.586576319
0	10214	329	0.586576319
0	10224	330	1.586576319
0	10399	338	0.01923581
0	10400	338	0.01923581
0	10434	339	1.01923581
0	10435	339	1.01923581
0	10469	340	1.86525327
0	10470	340	1.86525327
0	10501	341	2.86525327
0	10502	341	2.86525327
0	10527	342	1.250853439
0	10528	342	1.250853439
0	10561	343	2.250853439
0	10562	343	2.250853439
0	10674	348	0.771515943
0	10675	348	0.771515943
0	10716	349	1.771515943
0	10717	349	1.771515943
0	10768	353	0.819214203
0	10769	353	0.819214203
0	10780	354	1.819214203
0	10781	354	1.819214203
0	10969	360	0.885084029
0	10970	360	0.885084029
0	10971	360	0.885084029
0	10994	361	1.885084029
0	11055	362	0.595109514
0	11056	362	0.595109514
0	11109	363	1.595109514
0	11110	363	1.595109514
0	11152	364	1.402446468
0	11153	364	1.402446468
0	11190	365	2.402446468
0	11191	365	2.402446468
0	11364	371	0.634884454
0	11365	371	0.634884454
0	11366	371	0.634884454
0	11393	372	1.634884454
0	11694	381	0.050854231
0	11695	381	0.050854231
0	11696	381	0.050854231
0	11738	382	1.050854231
0	11811	385	0.748104945
0	11812	385	0.748104945
0	11849	386	1.748104945
0	11850	386	1.748104945
0	11862	387	1.746610276
0	11863	387	1.746610276
0	11899	388	2.746610276
0	11900	388	2.746610276
0	11930	389	3.191255499
0	11931	389	3.191255499
0	11957	390	4.191255499
0	11958	390	4.191255499
0	12079	394	0.530418146
0	12080	394	0.530418146
0	12123	395	1.530418146
0	12124	395	1.530418146
0	12169	396	1.617068705
0	12170	396	1.617068705
0	12198	397	2.617068705
0	12199	397	2.617068705
0	12243	398	0.240825295
0	12244	398	0.240825295
0	12291	399	1.240825295
0	12292	399	1.240825295
0	12317	400	1.84542082
0	12318	400	1.84542082
0	12331	401	2.84542082
0	12332	401	2.84542082
0	12351	402	3.509943851
0	12352	402	3.509943851
0	12373	403	4.509943851
0	12374	403	4.509943851
0	12681	414	0.523468515
0	12682	414	0.523468515
0	12683	414	0.523468515
0	12684	414	0.523468515
0	13073	428	0.729760111
0	13074	428	0.729760111
0	13075	428	0.729760111
0	13076	428	0.729760111
0	13160	430	0.967943743
0	13161	430	0.967943743
0	13236	431	1.967943743
0	13237	431	1.967943743
0	13258	432	1.250424517
0	13259	432	1.250424517
0	13276	433	2.250424517
0	13277	433	2.250424517
0	13330	435	0.583416949
0	13331	435	0.583416949
0	13384	436	1.583416949
0	13385	436	1.583416949
0	13431	437	1.901008481
0	13432	437	1.901008481
0	13450	438	2.901008481
0	13451	438	2.901008481
0	13464	439	3.794312733
0	13465	439	3.794312733
0	13484	440	4.794312733
0	13485	440	4.794312733
0	13533	441	0.718433592
0	13534	441	0.718433592
0	13564	442	1.718433592
0	13565	442	1.718433592
0	13600	443	2.47599804
0	13601	443	2.47599804
0	13627	444	3.47599804
0	13628	444	3.47599804
0	13836	451	0.825971719
0	13837	451	0.825971719
0	13872	452	1.825971719
0	13873	452	1.825971719
0	13972	456	0.05150573
0	13973	456	0.05150573
0	13994	457	1.05150573
0	13995	457	1.05150573
0	14034	458	0.375928215
0	14035	458	0.375928215
0	14046	459	1.375928215
0	14047	459	1.375928215
0	14063	460	2.116037373
0	14064	460	2.116037373
0	14084	461	3.116037373
0	14085	461	3.116037373
0	14122	462	1.97529858
0	14123	462	1.97529858
0	14148	463	2.97529858
0	14149	463	2.97529858
0	14167	464	2.981760977
0	14168	464	2.981760977
0	14197	465	3.981760977
0	14198	465	3.981760977
0	14249	466	3.125882202
0	14250	466	3.125882202
0	14270	467	4.125882202
0	14271	467	4.125882202
0	14285	468	2.089938439
0	14286	468	2.089938439
0	14309	469	3.089938439
0	14310	469	3.089938439
0	14463	472	0.120861047
0	14464	472	0.120861047
0	14493	473	1.120861047
0	14494	473	1.120861047
0	14516	474	2.120566248
0	14517	474	2.120566248
0	14546	475	3.120566248
0	14547	475	3.120566248
0	14650	478	0.23374292
0	14651	478	0.23374292
0	14683	479	1.23374292
0	14684	479	1.23374292
0	14704	480	1.657027901
0	14705	480	1.657027901
0	14730	481	2.657027901
0	14731	481	2.657027901
0	14850	485	0.030660411
0	14851	485	0.030660411
0	14869	486	1.030660411
0	14870	486	1.030660411
0	14994	490	0.622546536
0	14995	490	0.622546536
0	15024	491	1.622546536
0	15025	491	1.622546536
0	15181	495	0.697514041
0	15182	495	0.697514041
0	15236	496	1.697514041
0	15237	496	1.697514041
0	15271	497	2.668283438
0	15272	497	2.668283438
0	15304	498	3.668283438
0	15305	498	3.668283438
0	15353	499	4.024254262
0	15354	499	4.024254262
0	15372	500	5.024254262
0	15373	500	5.024254262
0	15395	501	5.888342013
0	15396	501	5.888342013
0	15417	502	6.888342013
0	15418	502	6.888342013
0	15468	503	7.116648481
0	15469	503	7.116648481
0	15512	504	8.116648481
0	15513	504	8.116648481
0	15553	505	7.583382037
0	15554	505	7.583382037
0	15583	506	8.583382037
0	15584	506	8.583382037
0	15620	507	8.97582287
0	15621	507	8.97582287
0	15662	508	9.97582287
0	15663	508	9.97582287
0	15695	509	2.893135438
0	15696	509	2.893135438
0	15722	510	3.893135438
0	15723	510	3.893135438
0	15739	511	1.464498802
0	15740	511	1.464498802
0	15789	512	2.464498802
0	15790	512	2.464498802
0	16043	520	0.53356378
0	16044	520	0.53356378
0	16045	520	0.53356378
0	16046	520	0.53356378
0	16118	523	0.889865548
0	16119	523	0.889865548
0	16152	524	1.889865548
0	16153	524	1.889865548
0	16442	535	0.879949251
0	16443	535	0.879949251
0	16494	536	1.879949251
0	16495	536	1.879949251
0	16538	537	1.59357942
0	16539	537	1.59357942
0	16593	538	2.59357942
0	16657	539	3.59357942
0	16658	539	3.158544279
0	16728	540	4.158544279
0	16757	541	5.158544279
0	16758	541	5.158544279
0	16823	543	0.254827517
0	16824	543	0.254827517
0	16850	544	1.254827517
0	16851	544	1.254827517
0	16879	545	1.034748536
0	16880	545	1.034748536
0	16928	546	2.034748536
0	16929	546	2.034748536
0	16959	547	1.643328479
0	16960	547	1.643328479
0	16984	548	2.643328479
0	16985	548	2.643328479
0	17026	549	3.140004569
0	17027	549	3.140004569
0	17102	550	4.140004569
0	17103	550	4.140004569
0	17136	551	1.007554012
0	17137	551	1.007554012
0	17173	552	2.007554012
0	17174	552	2.007554012
0	17232	554	0.646353306
0	17233	554	0.646353306
0	17261	555	1.646353306
0	17262	555	1.646353306
0	17297	556	0.989630892
0	17298	556	0.989630892
0	17318	557	1.989630892
0	17319	557	1.989630892
0	17352	558	0.504380321
0	17353	558	0.504380321
0	17394	559	1.504380321
0	17395	559	1.504380321
0	17422	560	1.099010622
0	17423	560	1.099010622
0	17433	561	2.099010622
0	17434	561	2.099010622
0	17462	562	0.445392756
0	17463	562	0.445392756
0	17494	563	1.445392756
0	17495	563	1.445392756
0	17658	567	0.304927146
0	17659	567	0.304927146
0	17660	567	0.304927146
0	17683	568	1.304927146
0	17781	571	0.857508567
0	17782	571	0.857508567
0	17816	572	1.857508567
0	17817	572	1.857508567
0	17925	575	0.419960791
0	17926	575	0.419960791
0	17965	576	1.419960791
0	17966	576	1.419960791
0	18219	583	0.29862996
0	18220	583	0.29862996
0	18221	583	0.29862996
0	18246	584	1.29862996
0	18279	585	0.027678225
0	18280	585	0.027678225
0	18303	586	1.027678225
0	18304	586	1.027678225
0	18410	595	0.957179853
0	18411	595	0.957179853
0	18436	596	1.957179853
0	18437	596	1.957179853
0	18448	597	2.70182038
0	18449	597	2.70182038
0	18455	598	3.70182038
0	18456	598	3.70182038
0	18462	599	3.315584229
0	18463	599	3.315584229
0	18479	600	4.315584229
0	18480	600	4.315584229
0	18589	602	0.473578339
0	18590	602	0.473578339
0	18621	603	1.473578339
0	18622	603	1.473578339
0	18655	604	1.770758468
0	18656	604	1.770758468
0	18691	605	2.770758468
0	18692	605	2.770758468
0	18742	606	1.343685192
0	18743	606	1.343685192
0	18763	607	2.343685192
0	18764	607	2.343685192
0	18785	608	2.653337526
0	18786	608	2.653337526
0	18820	609	3.653337526
0	18821	609	3.653337526
0	18921	612	0.309420414
0	18922	612	0.309420414
0	18956	613	1.309420414
0	18957	613	1.309420414
0	19098	617	0.007989913
0	19099	617	0.007989913
0	19135	618	1.007989913
0	19136	618	1.007989913
0	19214	621	0.581590933
0	19215	621	0.581590933
0	19225	622	1.581590933
0	19226	622	1.581590933
0	19315	625	0.89561875
0	19316	625	0.89561875
0	19340	626	1.89561875
0	19341	626	1.89561875
0	19369	627	2.235872224
0	19370	627	2.235872224
0	19394	628	3.235872224
0	19395	628	3.235872224
0	19439	629	3.507476463
0	19440	629	3.507476463
0	19465	630	4.507476463
0	19466	630	4.507476463
0	19481	631	3.006104177
0	19482	631	3.006104177
0	19511	632	4.006104177
0	19512	632	4.006104177
0	19564	633	4.513593035
0	19565	633	4.513593035
0	19607	634	5.513593035
0	19608	634	5.513593035
0	19710	636	0.281608781
0	19711	636	0.281608781
0	19754	637	1.281608781
0	19755	637	1.281608781
0	19787	638	1.335119658
0	19788	638	1.335119658
0	19812	639	2.335119658
0	19813	639	2.335119658
0	19840	640	2.79876034
0	19841	640	2.79876034
0	19887	641	3.79876034
0	19888	641	3.79876034
0	19938	642	2.269954833
0	19939	642	2.269954833
0	19966	643	3.269954833
0	19967	643	3.269954833
0	20003	644	2.707901853
0	20004	644	2.707901853
0	20030	645	3.707901853
0	20031	645	3.707901853
0	20073	646	4.687643151
0	20074	646	4.687643151
0	20101	647	5.687643151
0	20102	647	5.687643151
0	20149	648	3.799528677
0	20150	648	3.799528677
0	20174	649	4.799528677
0	20175	649	4.799528677
0	20189	650	4.16583031
0	20190	650	4.16583031
0	20206	651	5.16583031
0	20207	651	5.16583031
0	20262	653	0.344836384
0	20263	653	0.344836384
0	20302	654	1.344836384
0	20303	654	1.344836384
0	20380	656	0.909922245
0	20381	656	0.909922245
0	20432	657	1.909922245
0	20433	657	1.909922245
0	20470	658	1.431173346
0	20471	658	1.431173346
0	20512	659	2.431173346
0	20513	659	2.431173346
0	20672	663	0.173834269
0	20673	663	0.173834269
0	20691	664	1.173834269
0	20692	664	1.173834269
0	20745	666	0.868969122
0	20746	666	0.868969122
0	20790	667	1.868969122
0	20791	667	1.868969122
0	20819	668	1.028127349
0	20820	668	1.028127349
0	20844	669	2.028127349
0	20845	669	2.028127349
0	20868	670	2.935021993
0	20869	670	2.935021993
0	20908	671	3.935021993
0	20909	671	3.935021993
0	20944	672	1.092746926
0	20945	672	1.092746926
0	20975	673	2.092746926
0	20976	673	2.092746926
0	21010	674	0.35919647
0	21011	674	0.35919647
0	21058	675	1.35919647
0	21059	675	1.35919647
0	21092	676	1.758205667
0	21093	676	1.758205667
0	21122	677	2.758205667
0	21123	677	2.758205667
0	21168	678	2.368407997
0	21169	678	2.368407997
0	21225	679	3.368407997
0	21226	679	3.368407997
0	21282	680	2.098851029
0	21347	681	3.098851029
0	21348	681	3.098851029
0	21381	682	4.098851029
0	21382	682	1.815584259
0	21417	683	2.815584259
0	21418	683	2.815584259
0	21457	684	3.815584259
0	21556	687	0.011371031
0	21557	687	0.011371031
0	21594	688	1.011371031
0	21595	688	1.011371031
0	21629	689	1.284913764
0	21630	689	1.284913764
0	21676	690	2.284913764
0	21677	690	2.284913764
0	21772	692	0.383650815
0	21800	693	1.383650815
0	21801	693	1.383650815
0	21857	694	2.383650815
0	22014	699	0.748248818
0	22015	699	0.748248818
0	22043	700	1.748248818
0	22044	700	1.748248818
0	22095	701	0.961549111
0	22096	701	0.961549111
0	22139	702	1.961549111
0	22140	702	1.961549111
0	22193	703	2.930172574
0	22194	703	2.930172574
0	22219	704	3.930172574
0	22220	704	3.930172574
0	22272	706	0.423586479
0	22273	706	0.423586479
0	22297	707	1.423586479
0	22298	707	1.423586479
0	22317	708	1.335472417
0	22318	708	1.335472417
0	22337	709	2.335472417
0	22338	709	2.335472417
0	22349	710	2.594622396
0	22350	710	2.594622396
0	22378	711	3.594622396
0	22379	711	3.594622396
0	22432	712	0.540371063
0	22433	712	0.540371063
0	22471	713	1.540371063
0	22472	713	1.540371063
0	22513	714	1.742470556
0	22514	714	1.742470556
0	22554	715	2.742470556
0	22555	715	2.742470556
0	22586	716	2.870114681
0	22587	716	2.870114681
0	22670	717	3.870114681
0	22671	717	3.870114681
0	22755	720	0.7283239
0	22756	720	0.7283239
0	22769	721	1.7283239
0	22770	721	1.7283239
0	22846	724	0.869896004
0	22847	724	0.869896004
0	22875	725	1.869896004
0	22876	725	1.869896004
0	22939	727	0.598834677
0	22940	727	0.598834677
0	22972	728	1.598834677
0	22973	728	1.598834677
0	22996	729	2.591700245
0	22997	729	2.591700245
0	23052	730	3.591700245
0	23088	731	4.591700245
0	23089	731	3.496162582
0	23114	732	4.496162582
0	23115	732	4.496162582
0	23128	733	5.496162582
0	23129	733	2.154905467
0	23164	734	3.154905467
0	23165	734	3.154905467
0	23181	735	4.154905467
0	23182	735	1.927829561
0	23213	736	2.927829561
0	23214	736	2.927829561
0	23249	737	3.927829561
0	23250	737	3.384155932
0	23293	738	4.384155932
0	23294	738	4.384155932
0	23331	739	5.384155932
0	23332	739	5.234001427
0	23374	740	6.234001427
0	23375	740	6.234001427
0	23402	741	7.234001427
0	23403	741	4.969496592
0	23450	742	5.969496592
0	23451	742	5.969496592
0	23487	743	6.969496592
0	23488	743	0.583074805
0	23507	744	1.583074805
0	23508	744	1.583074805
0	23538	745	2.583074805
0	23614	746	0.791402901
0	23615	746	0.791402901
0	23646	747	1.791402901
0	23647	747	1.791402901
0	23683	748	2.600778037
0	23684	748	2.600778037
0	23703	749	3.600778037
0	23704	749	3.600778037
0	23730	750	4.487740915
0	23731	750	4.487740915
0	23784	751	5.487740915
0	23785	751	5.487740915
0	23818	752	1.015148211
0	23819	752	1.015148211
0	23843	753	2.015148211
0	23844	753	2.015148211
0	23867	754	0.680635819
0	23868	754	0.680635819
0	23906	755	1.680635819
0	23907	755	1.680635819
0	23944	757	0.898144386
0	23945	757	0.898144386
0	23961	758	1.898144386
0	23962	758	1.898144386
0	24048	761	0.19186293
0	24049	761	0.19186293
0	24068	762	1.19186293
0	24069	762	1.19186293
0	24100	763	0.360508636
0	24101	763	0.360508636
0	24122	764	1.360508636
0	24123	764	1.360508636
0	24516	777	0.753879486
0	24517	777	0.753879486
0	24518	777	0.753879486
0	24528	778	1.753879486
0	24594	779	0.013361606
0	24595	779	0.013361606
0	24644	780	1.013361606
0	24645	780	1.013361606
0	24691	781	1.19026515
0	24692	781	1.19026515
0	24725	782	2.19026515
0	24726	782	2.19026515
0	24760	783	1.697508873
0	24761	783	1.697508873
0	24790	784	2.697508873
0	24791	784	2.697508873
0	25077	794	0.831244257
0	25078	794	0.831244257
0	25098	795	1.831244257
0	25099	795	1.831244257
0	25127	796	1.713701694
0	25128	796	1.713701694
0	25143	797	2.713701694
0	25144	797	2.713701694
0	25335	805	0.286805918
0	25336	805	0.286805918
0	25359	806	1.286805918
0	25360	806	1.286805918
0	25391	807	1.775910738
0	25392	807	1.775910738
0	25436	808	2.775910738
0	25437	808	2.775910738
0	25472	809	0.474573745
0	25473	809	0.474573745
0	25494	810	1.474573745
0	25495	810	1.474573745
0	25574	814	0.579784263
0	25575	814	0.579784263
0	25606	815	1.579784263
0	25607	815	1.579784263
0	25955	825	0.949559834
0	25956	825	0.949559834
0	25991	826	1.949559834
0	25992	826	1.949559834
0	26038	827	1.705526011
0	26039	827	1.705526011
0	26056	828	2.705526011
0	26057	828	2.705526011
0	26102	829	2.974211146
0	26103	829	2.974211146
0	26134	830	3.974211146
0	26135	830	3.974211146
0	26161	831	4.897508478
0	26162	831	4.897508478
0	26201	832	5.897508478
0	26202	832	5.897508478
0	26217	833	1.092360626
0	26218	833	1.092360626
0	26229	834	2.092360626
0	26230	834	2.092360626
0	26259	835	0.785344756
0	26260	835	0.785344756
0	26293	836	1.785344756
0	26294	836	1.785344756
0	26369	841	0.768936421
0	26370	841	0.768936421
0	26394	842	1.768936421
0	26395	842	1.768936421
0	26443	843	1.954176195
0	26444	843	1.954176195
0	26464	844	2.954176195
0	26465	844	2.954176195
0	26487	845	2.13279736
0	26488	845	2.13279736
0	26509	846	3.13279736
0	26510	846	3.13279736
0	26559	847	0.78590314
0	26560	847	0.78590314
0	26594	848	1.78590314
0	26595	848	1.78590314
0	26680	851	0.452610138
0	26681	851	0.452610138
0	26714	852	1.452610138
0	26715	852	1.452610138
0	26771	853	0.47159944
0	26772	853	0.47159944
0	26802	854	1.47159944
0	26803	854	1.47159944
0	26930	857	0.869932125
0	26931	857	0.869932125
0	26957	858	1.869932125
0	26958	858	1.869932125
0	26974	859	2.288205033
0	26975	859	2.288205033
0	26985	860	3.288205033
0	26986	860	3.288205033
0	26992	861	4.088639244
0	26993	861	4.088639244
0	26999	862	5.088639244
0	27000	862	5.088639244
0	27136	868	0.434687208
0	27137	868	0.434687208
0	27138	868	0.434687208
0	27148	869	1.434687208
0	27326	875	0.909324731
0	27327	875	0.909324731
0	27355	876	1.909324731
0	27356	876	1.909324731
0	27441	878	0.029950742
0	27442	878	0.029950742
0	27476	879	1.029950742
0	27477	879	1.029950742
0	27520	880	1.355764423
0	27521	880	1.355764423
0	27554	881	2.355764423
0	27555	881	2.355764423
0	27608	882	0.954487809
0	27609	882	0.954487809
0	27646	883	1.954487809
0	27647	883	1.954487809
0	27728	885	0.37424677
0	27729	885	0.37424677
0	27772	886	1.37424677
0	27773	886	1.37424677
0	27840	888	0.260946743
0	27841	888	0.260946743
0	27861	889	1.260946743
0	27862	889	1.260946743
0	27912	891	0.516816266
0	27913	891	0.516816266
0	27938	892	1.516816266
0	27939	892	1.516816266
0	27953	893	2.148527024
0	27954	893	2.148527024
0	27980	894	3.148527024
0	27981	894	3.148527024
0	28144	900	0.594922669
0	28145	900	0.594922669
0	28164	901	1.594922669
0	28165	901	1.594922669
0	28244	903	0.690334541
0	28245	903	0.690334541
0	28297	904	1.690334541
0	28298	904	1.690334541
0	28337	905	1.003055037
0	28338	905	1.003055037
0	28368	906	2.003055037
0	28369	906	2.003055037
0	28393	907	0.861580125
0	28394	907	0.861580125
0	28423	908	1.861580125
0	28424	908	1.861580125
0	28614	913	0.211828315
0	28615	913	0.211828315
0	28616	913	0.211828315
0	28630	914	1.211828315
0	28668	915	0.264240644
0	28669	915	0.264240644
0	28683	916	1.264240644
0	28684	916	1.264240644
0	28744	918	0.670648278
0	28745	918	0.670648278
0	28774	919	1.670648278
0	28775	919	1.670648278
0	29007	927	0.715158437
0	29008	927	0.715158437
0	29009	927	0.715158437
0	29010	927	0.715158437
0	29097	930	0.327508404
0	29098	930	0.327508404
0	29138	931	1.327508404
0	29139	931	1.327508404
0	29219	935	0.772311288
0	29220	935	0.772311288
0	29251	936	1.772311288
0	29252	936	1.772311288
0	29295	937	0.217089964
0	29296	937	0.217089964
0	29319	938	1.217089964
0	29320	938	1.217089964
0	29393	941	0.55368086
0	29394	941	0.55368086
0	29432	942	1.55368086
0	29433	942	1.55368086
0	29498	944	0.816814106
0	29499	944	0.816814106
0	29542	945	1.816814106
0	29543	945	1.816814106
0	29583	946	2.416789083
0	29584	946	2.416789083
0	29631	947	3.416789083
0	29632	947	3.416789083
0	29664	948	3.833924875
0	29665	948	3.833924875
0	29691	949	4.833924875
0	29692	949	4.833924875
0	30000	956	0.326994274
0	30001	956	0.326994274
0	30002	956	0.326994274
0	30037	957	1.326994274
0	30266	964	0.516640519
0	30267	964	0.516640519
0	30268	964	0.516640519
0	30292	965	1.516640519
0	30320	966	0.909907716
0	30321	966	0.909907716
0	30353	967	1.909907716
0	30354	967	1.909907716
0	30572	978	0.310808498
0	30573	978	0.310808498
0	30574	978	0.310808498
0	30582	979	1.310808498
0	30615	981	0.57660749
0	30616	981	0.57660749
0	30644	982	1.57660749
0	30645	982	1.57660749
0	30688	983	0.708122219
0	30689	983	0.708122219
0	30735	984	1.708122219
0	30762	985	2.708122219
0	30909	991	0.504518674
0	30910	991	0.504518674
0	30941	992	1.504518674
0	30942	992	1.504518674
0	31192	1000	0.23391459
0	31193	1000	0.23391459
0	31194	1000	0.23391459
0	31271	1001	1.23391459
0	31272	1001	0.772810577
0	31306	1002	1.772810577
0	31307	1002	1.772810577
0	31346	1003	2.772810577
0	31347	1003	0.964453903
0	31381	1004	1.964453903
0	31382	1004	1.964453903
0	31424	1005	2.964453903
0	31627	1014	0.669472418
0	31628	1014	0.669472418
0	31676	1015	1.669472418
0	31677	1015	1.669472418
0	31838	1019	0.582554701
0	31839	1019	0.582554701
0	31887	1020	1.582554701
0	31888	1020	1.582554701
0	31927	1021	0.514622908
0	31928	1021	0.514622908
0	31962	1022	1.514622908
0	31963	1022	1.514622908
0	31992	1023	1.200911192
0	31993	1023	1.200911192
0	32012	1024	2.200911192
0	32013	1024	2.200911192
0	32118	1027	0.815075362
0	32119	1027	0.815075362
0	32138	1028	1.815075362
0	32139	1028	1.815075362
0	32226	1030	0.857392262
0	32227	1030	0.857392262
0	32254	1031	1.857392262
0	32255	1031	1.857392262
0	32601	1042	0.510956975
0	32602	1042	0.510956975
0	32603	1042	0.510956975
0	32638	1043	1.510956975
0	32719	1045	0.579503975
0	32720	1045	0.579503975
0	32781	1046	1.579503975
0	32782	1046	1.579503975
0	32817	1047	2.414062328
0	32818	1047	2.414062328
0	32841	1048	3.414062328
0	32842	1048	3.414062328
0	32866	1049	3.147998169
0	32867	1049	3.147998169
0	32885	1050	4.147998169
0	32886	1050	4.147998169
0	32955	1052	0.488788803
0	32956	1052	0.488788803
0	32994	1053	1.488788803
0	32995	1053	1.488788803
0	33038	1054	0.875093495
0	33039	1054	0.875093495
0	33054	1055	1.875093495
0	33055	1055	1.875093495
0	33084	1056	2.721957953
0	33085	1056	2.721957953
0	33109	1057	3.721957953
0	33110	1057	3.721957953
0	33200	1063	0.418564761
0	33201	1063	0.418564761
0	33226	1064	1.418564761
0	33227	1064	1.418564761
0	33265	1065	1.401825089
0	33266	1065	1.401825089
0	33292	1066	2.401825089
0	33293	1066	2.401825089
0	33328	1067	2.805437785
0	33329	1067	2.805437785
0	33354	1068	3.805437785
0	33355	1068	3.805437785
0	33375	1069	4.283626455
0	33376	1069	4.283626455
0	33409	1070	5.283626455
0	33410	1070	5.283626455
0	33440	1071	6.050871439
0	33441	1071	6.050871439
0	33472	1072	7.050871439
0	33473	1072	7.050871439
0	33506	1073	6.742418523
0	33507	1073	6.742418523
0	33544	1074	7.742418523
0	33545	1074	7.742418523
0	33576	1075	5.461510735
0	33577	1075	5.461510735
0	33610	1076	6.461510735
0	33611	1076	6.461510735
0	33638	1077	6.594602296
0	33639	1077	6.594602296
0	33649	1078	7.594602296
0	33650	1078	7.594602296
0	33669	1079	6.751657449
0	33670	1079	6.751657449
0	33691	1080	7.751657449
0	33692	1080	7.751657449
0	33723	1081	8.67293647
0	33724	1081	8.67293647
0	33761	1082	9.67293647
0	33762	1082	9.67293647
0	33790	1083	9.383242543
0	33791	1083	9.383242543
0	33825	1084	10.383242543
0	33826	1084	10.383242543
0	33850	1085	11.056746041
0	33851	1085	11.056746041
0	33884	1086	12.056746041
0	33885	1086	12.056746041
0	33931	1087	11.580626659
0	33932	1087	11.580626659
0	33953	1088	12.580626659
0	33954	1088	12.580626659
0	33996	1090	0.184025738
0	33997	1090	0.184025738
0	34026	1091	1.184025738
0	34027	1091	1.184025738
0	34050	1092	1.607462343
0	34051	1092	1.607462343
0	34102	1093	2.607462343
0	34103	1093	2.607462343
0	34165	1095	0.868417883
0	34166	1095	0.868417883
0	34203	1096	1.868417883
0	34204	1096	1.868417883
0	34360	1104	0.423116481
0	34361	1104	0.423116481
0	34424	1105	1.423116481