version 3
run Sched1-0-20250228-21:57:07-7776
attr configname Sched1
attr datetime 20250228-21:57:07
attr datetimef 20250228-215707
attr experiment Sched1
attr inifile omnetpp.ini
attr iterationvars ""
attr iterationvarsd ""
attr iterationvarsf ""
attr measurement ""
attr network RadioSch2
attr processid 7776
attr repetition 0
attr replication #0
attr resultdir results
attr runnumber 0
attr seedset 0
config description "low job arrival rate"
config *.scalar-recording true
config *.vector-recording true
config **.user[*].generator.sendIaTime "0.2 ms"
config *.user[*].generator.networkLoad 0.5
config *.user[*].generator.packetsPerUser 4
config *.user[*].generator.channels 14
config *.user[*].generator.usersCount 7
config *.user[*].generator.MAX_Sim "10 s"
config *.usersCount 7
config network RadioSch2
config sim-time-limit 100h
config cpu-time-limit 300s
config simtime-resolution ns
config record-eventlog true

vector 0 RadioSch2.sink lifetime_user0:vector ETV
attr interpolationmode none
attr recordingmode vector
attr title "User 0 Packet Lifetime"
attr unit s
vector 1 RadioSch2.sink lifetime_user1:vector ETV
attr interpolationmode none
attr recordingmode vector
attr title "User 1 Packet Lifetime"
attr unit s
vector 2 RadioSch2.sink lifetime_user2:vector ETV
attr interpolationmode none
attr recordingmode vector
attr title "User 2 Packet Lifetime"
attr unit s
vector 3 RadioSch2.sink lifetime_user3:vector ETV
attr interpolationmode none
attr recordingmode vector
attr title "User 3 Packet Lifetime"
attr unit s
vector 4 RadioSch2.sink lifetime_user4:vector ETV
attr interpolationmode none
attr recordingmode vector
attr title "User 4 Packet Lifetime"
attr unit s
vector 5 RadioSch2.sink lifetime_user5:vector ETV
attr interpolationmode none
attr recordingmode vector
attr title "User 5 Packet Lifetime"
attr unit s
vector 6 RadioSch2.sink lifetime_user6:vector ETV
attr interpolationmode none
attr recordingmode vector
attr title "User 6 Packet Lifetime"
attr unit s
0	82	1	1
0	128	2	2
0	182	3	3
0	183	3	3
0	284	9	0.105902312
0	285	9	0.105902312
0	286	9	0.105902312
0	311	10	1.105902312
0	312	10	0.85744115
0	346	11	1.85744115
0	347	11	1.85744115
0	364	12	2.85744115
0	365	12	2.305326396
0	385	13	3.305326396
0	386	13	3.305326396
0	424	14	4.305326396
0	489	16	0.749155637
0	490	16	0.749155637
0	503	17	1.749155637
0	504	17	1.749155637
0	521	18	0.34936809
0	522	18	0.34936809
0	539	19	1.34936809
0	540	19	1.34936809
0	709	28	0.333720958
0	710	28	0.333720958
0	747	29	1.333720958
0	748	29	1.333720958
0	1134	41	0.831847527
0	1135	41	0.831847527
0	1184	42	1.831847527
0	1185	42	1.831847527
0	1215	43	2.112018161
0	1216	43	2.112018161
0	1242	44	3.112018161
0	1243	44	3.112018161
0	1283	45	3.905286538
0	1284	45	3.905286538
0	1311	46	4.905286538
0	1312	46	4.905286538
0	1353	47	1.358900557
0	1354	47	1.358900557
0	1384	48	2.358900557
0	1385	48	2.358900557
0	1410	49	0.230997673
0	1411	49	0.230997673
0	1450	50	1.230997673
0	1451	50	1.230997673
0	1713	59	0.839622627
0	1714	59	0.839622627
0	1729	60	1.839622627
0	1730	60	1.839622627
0	1827	63	0.31594871
0	1828	63	0.31594871
0	1865	64	1.31594871
0	1866	64	1.31594871
0	2053	70	0.894113658
0	2054	70	0.894113658
0	2055	70	0.894113658
0	2056	70	0.894113658
0	2154	75	0.721522223
0	2155	75	0.721522223
0	2184	76	1.721522223
0	2185	76	1.721522223
0	2383	82	0.706663643
0	2384	82	0.706663643
0	2429	83	1.706663643
0	2430	83	1.706663643
0	2443	84	1.877922914
0	2444	84	1.877922914
0	2481	85	2.877922914
0	2482	85	2.877922914
0	2601	89	0.432594918
0	2602	89	0.432594918
0	2603	89	0.432594918
0	2644	90	1.432594918
0	2645	90	0.235281388
0	2695	91	1.235281388
0	2696	91	1.235281388
0	2762	92	2.235281388
0	2844	93	0.888206161
0	2888	94	1.888206161
0	2889	94	1.888206161
0	2910	95	2.888206161
0	2911	95	2.606198368
0	2962	96	3.606198368
0	2963	96	3.606198368
0	2993	97	4.606198368
0	2994	97	1.459962
0	3049	98	2.459962
0	3050	98	2.459962
0	3081	99	3.459962
0	3082	99	1.959714228
0	3108	100	2.959714228
0	3109	100	2.959714228
0	3148	101	3.959714228
0	3149	101	1.726407071
0	3186	102	2.726407071
0	3187	102	2.726407071
0	3221	103	3.726407071
0	3393	111	0.64982914
0	3394	111	0.64982914
0	3433	112	1.64982914
0	3434	112	1.64982914
0	3456	113	1.452417128
0	3457	113	1.452417128
0	3488	114	2.452417128
0	3489	114	2.452417128
0	3731	126	0.416162924
0	3732	126	0.416162924
0	3733	126	0.416162924
0	3760	127	1.416162924
0	3881	133	0.842749983
0	3882	133	0.842749983
0	3883	133	0.842749983
0	3897	134	1.842749983
0	4018	137	0.913797245
0	4019	137	0.913797245
0	4064	138	1.913797245
0	4065	138	1.913797245
0	4106	139	1.526081712
0	4107	139	1.526081712
0	4140	140	2.526081712
0	4141	140	2.526081712
0	4170	141	2.18978138
0	4171	141	2.18978138
0	4215	142	3.18978138
0	4216	142	3.18978138
0	4257	143	1.928760255
0	4258	143	1.928760255
0	4282	144	2.928760255
0	4283	144	2.928760255
0	4300	145	0.607717668
0	4301	145	0.607717668
0	4309	146	1.607717668
0	4310	146	1.607717668
0	4341	148	0.04430246
0	4342	148	0.04430246
0	4368	149	1.04430246
0	4369	149	1.04430246
0	4388	150	1.666035514
0	4389	150	1.666035514
0	4417	151	2.666035514
0	4418	151	2.666035514
0	4845	166	0.884961034
0	4846	166	0.884961034
0	4847	166	0.884961034
0	4876	167	1.884961034
0	5248	183	0.404962028
0	5249	183	0.404962028
0	5281	184	1.404962028
0	5282	184	1.404962028
0	5331	186	0.763066451
0	5332	186	0.763066451
0	5368	187	1.763066451
0	5369	187	1.763066451
0	5424	188	1.401153685
0	5425	188	1.401153685
0	5482	189	2.401153685
0	5483	189	2.401153685
0	5552	191	0.621081723
0	5553	191	0.621081723
0	5567	192	1.621081723
0	5568	192	1.621081723
0	5872	201	0.767103206
0	5873	201	0.767103206
0	5937	202	1.767103206
0	5938	202	1.767103206
0	5989	203	1.925435593
0	6023	204	2.925435593
0	6024	204	2.925435593
0	6052	205	3.925435593
0	6101	206	0.31038054
0	6102	206	0.31038054
0	6133	207	1.31038054
0	6134	207	1.31038054
0	6319	215	0.959619487
0	6320	215	0.959619487
0	6383	216	1.959619487
0	6384	216	1.959619487
0	6415	217	2.674271461
0	6416	217	2.674271461
0	6438	218	3.674271461
0	6439	218	3.674271461
0	6460	219	3.562619274
0	6461	219	3.562619274
0	6483	220	4.562619274
0	6484	220	4.562619274
0	6528	221	0.358168723
0	6529	221	0.358168723
0	6563	222	1.358168723
0	6564	222	1.358168723
0	6705	230	0.043265174
0	6706	230	0.043265174
0	6762	231	1.043265174
0	6763	231	1.043265174
0	6796	232	1.91870144
0	6797	232	1.91870144
0	6823	233	2.91870144
0	6824	233	2.91870144
0	6854	234	3.463909326
0	6855	234	3.463909326
0	6870	235	4.463909326
0	6871	235	4.463909326
0	6877	236	4.107758015
0	6878	236	4.107758015
0	6902	237	5.107758015
0	6903	237	5.107758015
0	7495	257	0.198029343
0	7496	257	0.198029343
0	7497	257	0.198029343
0	7535	258	1.198029343
0	7536	258	0.88663652
0	7577	259	1.88663652
0	7578	259	1.88663652
0	7609	260	2.88663652
0	7610	260	1.048064408
0	7659	261	2.048064408
0	7702	262	3.048064408
0	7703	262	3.048064408
0	7793	264	0.979307237
0	7794	264	0.979307237
0	7832	265	1.979307237
0	7833	265	1.979307237
0	8280	281	0.367649673
0	8281	281	0.367649673
0	8331	282	1.367649673
0	8332	282	1.367649673
0	8387	283	1.925102649
0	8388	283	1.925102649
0	8420	284	2.925102649
0	8451	285	3.925102649
0	8478	286	0.560178983
0	8479	286	0.560178983
0	8526	287	1.560178983
0	8527	287	1.560178983
0	8576	288	2.420794797
0	8577	288	2.420794797
0	8597	289	3.420794797
0	8598	289	3.420794797
0	8617	290	3.914381275
0	8618	290	3.914381275
0	8627	291	4.914381275
0	8628	291	4.914381275
0	8729	297	0.990388171
0	8730	297	0.990388171
0	8746	298	1.990388171
0	8747	298	1.990388171
0	8906	305	0.917317364
0	8907	305	0.917317364
0	8908	305	0.917317364
0	8928	306	1.917317364
0	8964	307	0.037835261
0	8965	307	0.037835261
0	8998	308	1.037835261
0	8999	308	1.037835261
0	9032	309	1.68610188
0	9033	309	1.68610188
0	9084	310	2.68610188
0	9085	310	2.68610188
0	9099	311	1.812082069
0	9100	311	1.812082069
0	9148	312	2.812082069
0	9149	312	2.812082069
0	9187	313	1.278829364
0	9188	313	1.278829364
0	9206	314	2.278829364
0	9207	314	2.278829364
0	9321	320	0.318081842
0	9322	320	0.318081842
0	9360	321	1.318081842
0	9361	321	1.318081842
0	9552	329	0.586576319
0	9553	329	0.586576319
0	9562	330	1.586576319
0	9563	330	1.586576319
0	9719	338	0.01923581
0	9720	338	0.01923581
0	9752	339	1.01923581
0	9753	339	1.01923581
0	9783	340	1.86525327
0	9784	340	1.86525327
0	9814	341	2.86525327
0	9815	341	2.86525327
0	9838	342	1.250853439
0	9839	342	1.250853439
0	9869	343	2.250853439
0	9870	343	2.250853439
0	9976	348	0.771515943
0	9977	348	0.771515943
0	10015	349	1.771515943
0	10016	349	1.771515943
0	10064	353	0.819214203
0	10065	353	0.819214203
0	10074	354	1.819214203
0	10075	354	1.819214203
0	10251	360	0.885084029
0	10252	360	0.885084029
0	10273	361	1.885084029
0	10274	361	1.885084029
0	10333	362	0.595109514
0	10334	362	0.595109514
0	10384	363	1.595109514
0	10385	363	1.595109514
0	10425	364	1.402446468
0	10426	364	1.402446468
0	10462	365	2.402446468
0	10463	365	2.402446468
0	10630	371	0.634884454
0	10631	371	0.634884454
0	10658	372	1.634884454
0	10659	372	1.634884454
0	10943	381	0.050854231
0	10944	381	0.050854231
0	10945	381	0.050854231
0	10984	382	1.050854231
0	11051	385	0.748104945
0	11052	385	0.748104945
0	11086	386	1.748104945
0	11087	386	1.748104945
0	11100	387	1.746610276
0	11101	387	1.746610276
0	11135	388	2.746610276
0	11136	388	2.746610276
0	11163	389	3.191255499
0	11164	389	3.191255499
0	11188	390	4.191255499
0	11189	390	4.191255499
0	11304	394	0.530418146
0	11305	394	0.530418146
0	11306	394	0.530418146
0	11343	395	1.530418146
0	11344	395	0.617068705
0	11388	396	1.617068705
0	11389	396	1.617068705
0	11412	397	2.617068705
0	11454	398	0.240825295
0	11455	398	0.240825295
0	11499	399	1.240825295
0	11500	399	1.240825295
0	11521	400	1.84542082
0	11522	400	1.84542082
0	11535	401	2.84542082
0	11536	401	2.84542082
0	11555	402	3.509943851
0	11556	402	3.509943851
0	11575	403	4.509943851
0	11576	403	4.509943851
0	11863	414	0.523468515
0	11864	414	0.523468515
0	11872	415	1.523468515
0	11873	415	1.523468515
0	12226	428	0.729760111
0	12227	428	0.729760111
0	12228	428	0.729760111
0	12275	429	1.729760111
0	12311	430	0.967943743
0	12312	430	0.967943743
0	12387	431	1.967943743
0	12388	431	1.967943743
0	12408	432	1.250424517
0	12409	432	1.250424517
0	12424	433	2.250424517
0	12425	433	2.250424517
0	12474	435	0.583416949
0	12475	435	0.583416949
0	12524	436	1.583416949
0	12525	436	1.583416949
0	12567	437	1.901008481
0	12568	437	1.901008481
0	12586	438	2.901008481
0	12587	438	2.901008481
0	12598	439	3.794312733
0	12599	439	3.794312733
0	12616	440	4.794312733
0	12617	440	4.794312733
0	12663	441	0.718433592
0	12664	441	0.718433592
0	12691	442	1.718433592
0	12692	442	1.718433592
0	12726	443	2.47599804
0	12727	443	2.47599804
0	12751	444	3.47599804
0	12752	444	3.47599804
0	12943	451	0.825971719
0	12944	451	0.825971719
0	12977	452	1.825971719
0	12978	452	1.825971719
0	13070	456	0.05150573
0	13071	456	0.05150573
0	13088	457	1.05150573
0	13089	457	1.05150573
0	13126	458	0.375928215
0	13127	458	0.375928215
0	13138	459	1.375928215
0	13139	459	1.375928215
0	13153	460	2.116037373
0	13154	460	2.116037373
0	13172	461	3.116037373
0	13173	461	3.116037373
0	13208	462	1.97529858
0	13209	462	1.97529858
0	13231	463	2.97529858
0	13232	463	2.97529858
0	13249	464	2.981760977
0	13250	464	2.981760977
0	13277	465	3.981760977
0	13278	465	3.981760977
0	13331	466	3.125882202
0	13332	466	3.125882202
0	13350	467	4.125882202
0	13351	467	4.125882202
0	13359	468	2.089938439
0	13360	468	2.089938439
0	13377	469	3.089938439
0	13378	469	3.089938439
0	13522	472	0.120861047
0	13523	472	0.120861047
0	13552	473	1.120861047
0	13553	473	1.120861047
0	13572	474	2.120566248
0	13573	474	2.120566248
0	13601	475	3.120566248
0	13602	475	3.120566248
0	13696	478	0.23374292
0	13697	478	0.23374292
0	13727	479	1.23374292
0	13728	479	1.23374292
0	13748	480	1.657027901
0	13749	480	1.657027901
0	13771	481	2.657027901
0	13772	481	2.657027901
0	13884	485	0.030660411
0	13885	485	0.030660411
0	13901	486	1.030660411
0	13902	486	1.030660411
0	14017	490	0.622546536
0	14018	490	0.622546536
0	14044	491	1.622546536
0	14045	491	1.622546536
0	14197	495	0.697514041
0	14198	495	0.697514041
0	14250	496	1.697514041
0	14251	496	1.697514041
0	14284	497	2.668283438
0	14285	497	2.668283438
0	14313	498	3.668283438
0	14314	498	3.668283438
0	14361	499	4.024254262
0	14362	499	4.024254262
0	14376	500	5.024254262
0	14377	500	5.024254262
0	14398	501	5.888342013
0	14399	501	5.888342013
0	14421	502	6.888342013
0	14422	502	6.888342013
0	14470	503	7.116648481
0	14471	503	7.116648481
0	14512	504	8.116648481
0	14513	504	8.116648481
0	14550	505	7.583382037
0	14551	505	7.583382037
0	14581	506	8.583382037
0	14582	506	8.583382037
0	14617	507	8.97582287
0	14618	507	8.97582287
0	14657	508	9.97582287
0	14658	508	9.97582287
0	14688	509	2.893135438
0	14689	509	2.893135438
0	14711	510	3.893135438
0	14712	510	3.893135438
0	14729	511	1.464498802
0	14730	511	1.464498802
0	14778	512	2.464498802
0	14779	512	2.464498802
0	15015	520	0.53356378
0	15016	520	0.53356378
0	15017	520	0.53356378
0	15018	520	0.53356378
0	15079	523	0.889865548
0	15080	523	0.889865548
0	15112	524	1.889865548
0	15113	524	1.889865548
0	15382	535	0.879949251
0	15383	535	0.879949251
0	15432	536	1.879949251
0	15433	536	1.879949251
0	15476	537	1.59357942
0	15477	537	1.59357942
0	15530	538	2.59357942
0	15592	539	3.59357942
0	15593	539	3.158544279
0	15660	540	4.158544279
0	15688	541	5.158544279
0	15721	542	6.158544279
0	15754	543	0.254827517
0	15755	543	0.254827517
0	15780	544	1.254827517
0	15781	544	1.254827517
0	15807	545	1.034748536
0	15808	545	1.034748536
0	15854	546	2.034748536
0	15855	546	2.034748536
0	15882	547	1.643328479
0	15883	547	1.643328479
0	15904	548	2.643328479
0	15905	548	2.643328479
0	15946	549	3.140004569
0	15947	549	3.140004569
0	16022	550	4.140004569
0	16023	550	4.140004569
0	16056	551	1.007554012
0	16090	552	2.007554012
0	16091	552	2.007554012
0	16108	553	3.007554012
0	16139	554	0.646353306
0	16140	554	0.646353306
0	16164	555	1.646353306
0	16165	555	1.646353306
0	16193	556	0.989630892
0	16194	556	0.989630892
0	16213	557	1.989630892
0	16214	557	1.989630892
0	16242	558	0.504380321
0	16243	558	0.504380321
0	16280	559	1.504380321
0	16281	559	1.504380321
0	16304	560	1.099010622
0	16305	560	1.099010622
0	16318	561	2.099010622
0	16319	561	2.099010622
0	16344	562	0.445392756
0	16345	562	0.445392756
0	16374	563	1.445392756
0	16375	563	1.445392756
0	16532	567	0.304927146
0	16533	567	0.304927146
0	16559	568	1.304927146
0	16560	568	1.304927146
0	16649	571	0.857508567
0	16650	571	0.857508567
0	16682	572	1.857508567
0	16683	572	1.857508567
0	16785	575	0.419960791
0	16786	575	0.419960791
0	16825	576	1.419960791
0	16826	576	1.419960791
0	17056	583	0.29862996
0	17057	583	0.29862996
0	17058	583	0.29862996
0	17081	584	1.29862996
0	17112	585	0.027678225
0	17113	585	0.027678225
0	17137	586	1.027678225
0	17138	586	1.027678225
0	17226	595	0.957179853
0	17227	595	0.957179853
0	17250	596	1.957179853
0	17251	596	1.957179853
0	17260	597	2.70182038
0	17261	597	2.70182038
0	17265	598	3.70182038
0	17266	598	3.70182038
0	17270	599	3.315584229
0	17271	599	3.315584229
0	17285	600	4.315584229
0	17286	600	4.315584229
0	17392	602	0.473578339
0	17393	602	0.473578339
0	17424	603	1.473578339
0	17425	603	1.473578339
0	17456	604	1.770758468
0	17457	604	1.770758468
0	17488	605	2.770758468
0	17489	605	2.770758468
0	17536	606	1.343685192
0	17537	606	1.343685192
0	17556	607	2.343685192
0	17557	607	2.343685192
0	17579	608	2.653337526
0	17580	608	2.653337526
0	17610	609	3.653337526
0	17611	609	3.653337526
0	17705	612	0.309420414
0	17706	612	0.309420414
0	17738	613	1.309420414
0	17739	613	1.309420414
0	17872	617	0.007989913
0	17873	617	0.007989913
0	17874	617	0.007989913
0	17875	617	0.007989913
0	17978	621	0.581590933
0	17979	621	0.581590933
0	17987	622	1.581590933
0	17988	622	1.581590933
0	18069	625	0.89561875
0	18070	625	0.89561875
0	18092	626	1.89561875
0	18093	626	1.89561875
0	18119	627	2.235872224
0	18120	627	2.235872224
0	18142	628	3.235872224
0	18143	628	3.235872224
0	18187	629	3.507476463
0	18188	629	3.507476463
0	18211	630	4.507476463
0	18212	630	4.507476463
0	18225	631	3.006104177
0	18226	631	3.006104177
0	18253	632	4.006104177
0	18254	632	4.006104177
0	18304	633	4.513593035
0	18305	633	4.513593035
0	18346	634	5.513593035
0	18347	634	5.513593035
0	18446	636	0.281608781
0	18447	636	0.281608781
0	18488	637	1.281608781
0	18489	637	1.281608781
0	18522	638	1.335119658
0	18523	638	1.335119658
0	18546	639	2.335119658
0	18547	639	2.335119658
0	18574	640	2.79876034
0	18575	640	2.79876034
0	18617	641	3.79876034
0	18618	641	3.79876034
0	18662	642	2.269954833
0	18663	642	2.269954833
0	18687	643	3.269954833
0	18688	643	3.269954833
0	18722	644	2.707901853
0	18723	644	2.707901853
0	18747	645	3.707901853
0	18748	645	3.707901853
0	18788	646	4.687643151
0	18789	646	4.687643151
0	18813	647	5.687643151
0	18814	647	5.687643151
0	18857	648	3.799528677
0	18858	648	3.799528677
0	18882	649	4.799528677
0	18883	649	4.799528677
0	18895	650	4.16583031
0	18896	650	4.16583031
0	18910	651	5.16583031
0	18911	651	5.16583031
0	18962	653	0.344836384
0	18963	653	0.344836384
0	18999	654	1.344836384
0	19000	654	1.344836384
0	19078	656	0.909922245
0	19079	656	0.909922245
0	19127	657	1.909922245
0	19128	657	1.909922245
0	19164	658	1.431173346
0	19165	658	1.431173346
0	19203	659	2.431173346
0	19204	659	2.431173346
0	19353	663	0.173834269
0	19354	663	0.173834269
0	19369	664	1.173834269
0	19370	664	1.173834269
0	19419	666	0.868969122
0	19420	666	0.868969122
0	19462	667	1.868969122
0	19463	667	1.868969122
0	19490	668	1.028127349
0	19491	668	1.028127349
0	19511	669	2.028127349
0	19512	669	2.028127349
0	19534	670	2.935021993
0	19535	670	2.935021993
0	19573	671	3.935021993
0	19574	671	3.935021993
0	19607	672	1.092746926
0	19608	672	1.092746926
0	19635	673	2.092746926
0	19636	673	2.092746926
0	19666	674	0.35919647
0	19667	674	0.35919647
0	19712	675	1.35919647
0	19713	675	1.35919647
0	19744	676	1.758205667
0	19745	676	1.758205667
0	19772	677	2.758205667
0	19773	677	2.758205667
0	19816	678	2.368407997
0	19817	678	2.368407997
0	19871	679	3.368407997
0	19872	679	3.368407997
0	19926	680	2.098851029
0	19989	681	3.098851029
0	19990	681	3.098851029
0	20020	682	4.098851029
0	20021	682	1.815584259
0	20054	683	2.815584259
0	20055	683	2.815584259
0	20091	684	3.815584259
0	20183	687	0.011371031
0	20184	687	0.011371031
0	20219	688	1.011371031
0	20220	688	1.011371031
0	20253	689	1.284913764
0	20254	689	1.284913764
0	20297	690	2.284913764
0	20298	690	2.284913764
0	20389	692	0.383650815
0	20415	693	1.383650815
0	20416	693	1.383650815
0	20473	694	2.383650815
0	20620	699	0.748248818
0	20621	699	0.748248818
0	20647	700	1.748248818
0	20648	700	1.748248818
0	20700	701	0.961549111
0	20701	701	0.961549111
0	20744	702	1.961549111
0	20745	702	1.961549111
0	20795	703	2.930172574
0	20796	703	2.930172574
0	20820	704	3.930172574
0	20821	704	3.930172574
0	20870	706	0.423586479
0	20871	706	0.423586479
0	20888	707	1.423586479
0	20889	707	1.423586479
0	20906	708	1.335472417
0	20907	708	1.335472417
0	20923	709	2.335472417
0	20924	709	2.335472417
0	20933	710	2.594622396
0	20934	710	2.594622396
0	20958	711	3.594622396
0	20959	711	3.594622396
0	21010	712	0.540371063
0	21011	712	0.540371063
0	21047	713	1.540371063
0	21048	713	1.540371063
0	21085	714	1.742470556
0	21086	714	1.742470556
0	21123	715	2.742470556
0	21124	715	2.742470556
0	21154	716	2.870114681
0	21155	716	2.870114681
0	21235	717	3.870114681
0	21236	717	3.870114681
0	21312	720	0.7283239
0	21313	720	0.7283239
0	21323	721	1.7283239
0	21324	721	1.7283239
0	21396	724	0.869896004
0	21397	724	0.869896004
0	21423	725	1.869896004
0	21424	725	1.869896004
0	21479	727	0.598834677
0	21480	727	0.598834677
0	21510	728	1.598834677
0	21511	728	1.598834677
0	21532	729	2.591700245
0	21533	729	2.591700245
0	21586	730	3.591700245
0	21620	731	4.591700245
0	21621	731	3.496162582
0	21646	732	4.496162582
0	21647	732	4.496162582
0	21658	733	5.496162582
0	21659	733	2.154905467
0	21690	734	3.154905467
0	21691	734	3.154905467
0	21705	735	4.154905467
0	21706	735	1.927829561
0	21735	736	2.927829561
0	21736	736	2.927829561
0	21770	737	3.927829561
0	21771	737	3.384155932
0	21811	738	4.384155932
0	21812	738	4.384155932
0	21847	739	5.384155932
0	21848	739	5.234001427
0	21888	740	6.234001427
0	21889	740	6.234001427
0	21916	741	7.234001427
0	21917	741	4.969496592
0	21962	742	5.969496592
0	21963	742	5.969496592
0	21997	743	6.969496592
0	21998	743	0.583074805
0	22014	744	1.583074805
0	22015	744	1.583074805
0	22046	745	2.583074805
0	22120	746	0.791402901
0	22121	746	0.791402901
0	22151	747	1.791402901
0	22152	747	1.791402901
0	22186	748	2.600778037
0	22187	748	2.600778037
0	22203	749	3.600778037
0	22204	749	3.600778037
0	22230	750	4.487740915
0	22231	750	4.487740915
0	22282	751	5.487740915
0	22283	751	5.487740915
0	22312	752	1.015148211
0	22313	752	1.015148211
0	22336	753	2.015148211
0	22337	753	2.015148211
0	22357	754	0.680635819
0	22358	754	0.680635819
0	22395	755	1.680635819
0	22396	755	1.680635819
0	22430	757	0.898144386
0	22431	757	0.898144386
0	22447	758	1.898144386
0	22448	758	1.898144386
0	22528	761	0.19186293
0	22529	761	0.19186293
0	22547	762	1.19186293
0	22548	762	1.19186293
0	22576	763	0.360508636
0	22577	763	0.360508636
0	22596	764	1.360508636
0	22597	764	1.360508636
0	22964	777	0.753879486
0	22965	777	0.753879486
0	22966	777	0.753879486
0	22967	777	0.753879486
0	23036	779	0.013361606
0	23037	779	0.013361606
0	23082	780	1.013361606
0	23083	780	1.013361606
0	23128	781	1.19026515
0	23161	782	2.19026515
0	23162	782	2.19026515
0	23195	783	3.19026515
0	23196	783	1.697508873
0	23223	784	2.697508873
0	23224	784	2.697508873
0	23259	785	3.697508873
0	23493	794	0.831244257
0	23494	794	0.831244257
0	23495	794	0.831244257
0	23512	795	1.831244257
0	23513	795	0.713701694
0	23540	796	1.713701694
0	23541	796	1.713701694
0	23554	797	2.713701694
0	23729	805	0.286805918
0	23730	805	0.286805918
0	23751	806	1.286805918
0	23752	806	1.286805918
0	23781	807	1.775910738
0	23782	807	1.775910738
0	23821	808	2.775910738
0	23822	808	2.775910738
0	23858	809	0.474573745
0	23859	809	0.474573745
0	23881	810	1.474573745
0	23882	810	1.474573745
0	23956	814	0.579784263
0	23957	814	0.579784263
0	23986	815	1.579784263
0	23987	815	1.579784263
0	24312	825	0.949559834
0	24313	825	0.949559834
0	24314	825	0.949559834
0	24347	826	1.949559834
0	24348	826	0.705526011
0	24393	827	1.705526011
0	24394	827	1.705526011
0	24405	828	2.705526011
0	24406	828	1.974211146
0	24449	829	2.974211146
0	24450	829	2.974211146
0	24477	830	3.974211146
0	24478	830	3.897508478
0	24496	831	4.897508478
0	24497	831	4.897508478
0	24535	832	5.897508478
0	24536	832	0.092360626
0	24549	833	1.092360626
0	24550	833	1.092360626
0	24558	834	2.092360626
0	24585	835	0.785344756
0	24586	835	0.785344756
0	24619	836	1.785344756
0	24620	836	1.785344756
0	24687	841	0.768936421
0	24688	841	0.768936421
0	24710	842	1.768936421
0	24711	842	1.768936421
0	24757	843	1.954176195
0	24758	843	1.954176195
0	24775	844	2.954176195
0	24776	844	2.954176195
0	24797	845	2.13279736
0	24798	845	2.13279736
0	24819	846	3.13279736
0	24820	846	3.13279736
0	24867	847	0.78590314
0	24868	847	0.78590314
0	24900	848	1.78590314
0	24901	848	1.78590314
0	24978	851	0.452610138
0	24979	851	0.452610138
0	25010	852	1.452610138
0	25011	852	1.452610138
0	25065	853	0.47159944
0	25066	853	0.47159944
0	25097	854	1.47159944
0	25098	854	1.47159944
0	25221	857	0.869932125
0	25222	857	0.869932125
0	25247	858	1.869932125
0	25248	858	1.869932125
0	25263	859	2.288205033
0	25264	859	2.288205033
0	25277	860	3.288205033
0	25278	860	3.288205033
0	25284	861	4.088639244
0	25285	861	4.088639244
0	25289	862	5.088639244
0	25290	862	5.088639244
0	25414	868	0.434687208
0	25415	868	0.434687208
0	25416	868	0.434687208
0	25424	869	1.434687208
0	25590	875	0.909324731
0	25591	875	0.909324731
0	25618	876	1.909324731
0	25619	876	1.909324731
0	25696	878	0.029950742
0	25697	878	0.029950742
0	25730	879	1.029950742
0	25731	879	1.029950742
0	25772	880	1.355764423
0	25773	880	1.355764423
0	25804	881	2.355764423
0	25805	881	2.355764423
0	25856	882	0.954487809
0	25857	882	0.954487809
0	25892	883	1.954487809
0	25893	883	1.954487809
0	25969	885	0.37424677
0	25970	885	0.37424677
0	26011	886	1.37424677
0	26012	886	1.37424677
0	26074	888	0.260946743
0	26075	888	0.260946743
0	26095	889	1.260946743
0	26096	889	1.260946743
0	26146	891	0.516816266
0	26147	891	0.516816266
0	26170	892	1.516816266
0	26171	892	1.516816266
0	26183	893	2.148527024
0	26184	893	2.148527024
0	26210	894	3.148527024
0	26211	894	3.148527024
0	26365	900	0.594922669
0	26366	900	0.594922669
0	26383	901	1.594922669
0	26384	901	1.594922669
0	26458	903	0.690334541
0	26459	903	0.690334541
0	26509	904	1.690334541
0	26510	904	1.690334541
0	26548	905	1.003055037
0	26549	905	1.003055037
0	26581	906	2.003055037
0	26582	906	2.003055037
0	26606	907	0.861580125
0	26607	907	0.861580125
0	26634	908	1.861580125
0	26635	908	1.861580125
0	26812	913	0.211828315
0	26813	913	0.211828315
0	26824	914	1.211828315
0	26825	914	1.211828315
0	26861	915	0.264240644
0	26862	915	0.264240644
0	26875	916	1.264240644
0	26876	916	1.264240644
0	26930	918	0.670648278
0	26931	918	0.670648278
0	26959	919	1.670648278
0	26960	919	1.670648278
0	27177	927	0.715158437
0	27178	927	0.715158437
0	27179	927	0.715158437
0	27180	927	0.715158437
0	27255	930	0.327508404
0	27256	930	0.327508404
0	27294	931	1.327508404
0	27295	931	1.327508404
0	27371	935	0.772311288
0	27372	935	0.772311288
0	27401	936	1.772311288
0	27402	936	1.772311288
0	27443	937	0.217089964
0	27444	937	0.217089964
0	27465	938	1.217089964
0	27466	938	1.217089964
0	27532	941	0.55368086
0	27533	941	0.55368086
0	27568	942	1.55368086
0	27569	942	1.55368086
0	27629	944	0.816814106
0	27630	944	0.816814106
0	27672	945	1.816814106
0	27673	945	1.816814106
0	27711	946	2.416789083
0	27712	946	2.416789083
0	27756	947	3.416789083
0	27757	947	3.416789083
0	27788	948	3.833924875
0	27789	948	3.833924875
0	27812	949	4.833924875
0	27813	949	4.833924875
0	28107	956	0.326994274
0	28108	956	0.326994274
0	28109	956	0.326994274
0	28141	957	1.326994274
0	28353	964	0.516640519
0	28354	964	0.516640519
0	28355	964	0.516640519
0	28380	965	1.516640519
0	28406	966	0.909907716
0	28407	966	0.909907716
0	28439	967	1.909907716
0	28440	967	1.909907716
0	28640	978	0.310808498
0	28641	978	0.310808498
0	28642	978	0.310808498
0	28646	979	1.310808498
0	28675	981	0.57660749
0	28676	981	0.57660749
0	28702	982	1.57660749
0	28703	982	1.57660749
0	28744	983	0.708122219
0	28745	983	0.708122219
0	28788	984	1.708122219
0	28789	984	1.708122219
0	28944	991	0.504518674
0	28945	991	0.504518674
0	28975	992	1.504518674
0	28976	992	1.504518674
0	29212	1000	0.23391459
0	29213	1000	0.23391459
0	29214	1000	0.23391459
0	29215	1000	0.23391459
0	29288	1001	0.772810577
0	29289	1001	0.772810577
0	29322	1002	1.772810577
0	29323	1002	1.772810577
0	29360	1003	0.964453903
0	29361	1003	0.964453903
0	29393	1004	1.964453903
0	29394	1004	1.964453903
0	29615	1014	0.669472418
0	29616	1014	0.669472418
0	29617	1014	0.669472418
0	29663	1015	1.669472418
0	29806	1019	0.582554701
0	29807	1019	0.582554701
0	29853	1020	1.582554701
0	29854	1020	1.582554701
0	29891	1021	0.514622908
0	29892	1021	0.514622908
0	29924	1022	1.514622908
0	29925	1022	1.514622908
0	29952	1023	1.200911192
0	29953	1023	1.200911192
0	29971	1024	2.200911192
0	29972	1024	2.200911192
0	30073	1027	0.815075362
0	30074	1027	0.815075362
0	30091	1028	1.815075362
0	30092	1028	1.815075362
0	30176	1030	0.857392262
0	30177	1030	0.857392262
0	30203	1031	1.857392262
0	30204	1031	1.857392262
0	30531	1042	0.510956975
0	30532	1042	0.510956975
0	30533	1042	0.510956975
0	30534	1042	0.510956975
0	30641	1045	0.579503975
0	30642	1045	0.579503975
0	30701	1046	1.579503975
0	30702	1046	1.579503975
0	30735	1047	2.414062328
0	30736	1047	2.414062328
0	30757	1048	3.414062328
0	30758	1048	3.414062328
0	30780	1049	3.147998169
0	30781	1049	3.147998169
0	30798	1050	4.147998169
0	30799	1050	4.147998169
0	30863	1052	0.488788803
0	30864	1052	0.488788803
0	30900	1053	1.488788803
0	30901	1053	1.488788803
0	30942	1054	0.875093495
0	30943	1054	0.875093495
0	30956	1055	1.875093495
0	30957	1055	1.875093495
0	30987	1056	2.721957953
0	30988	1056	2.721957953
0	31010	1057	3.721957953
0	31011	1057	3.721957953
0	31085	1063	0.418564761
0	31086	1063	0.418564761
0	31112	1064	1.418564761
0	31113	1064	1.418564761
0	31149	1065	1.401825089
0	31150	1065	1.401825089
0	31174	1066	2.401825089
0	31175	1066	2.401825089
0	31208	1067	2.805437785
0	31209	1067	2.805437785
0	31230	1068	3.805437785
0	31231	1068	3.805437785
0	31249	1069	4.283626455
0	31250	1069	4.283626455
0	31281	1070	5.283626455
0	31282	1070	5.283626455
0	31310	1071	6.050871439
0	31311	1071	6.050871439
0	31340	1072	7.050871439
0	31341	1072	7.050871439
0	31372	1073	6.742418523
0	31373	1073	6.742418523
0	31408	1074	7.742418523
0	31409	1074	7.742418523
0	31437	1075	5.461510735
0	31438	1075	5.461510735
0	31470	1076	6.461510735
0	31471	1076	6.461510735
0	31496	1077	6.594602296
0	31497	1077	6.594602296
0	31507	1078	7.594602296
0	31508	1078	7.594602296
0	31525	1079	6.751657449
0	31526	1079	6.751657449
0	31545	1080	7.751657449
0	31546	1080	7.751657449
0	31575	1081	8.67293647
0	31576	1081	8.67293647
0	31610	1082	9.67293647
0	31611	1082	9.67293647
0	31636	1083	9.383242543
0	31637	1083	9.383242543
0	31671	1084	10.383242543
0	31672	1084	10.383242543
0	31693	1085	11.056746041
0	31694	1085	11.056746041
0	31725	1086	12.056746041
0	31726	1086	12.056746041
0	31771	1087	11.580626659
0	31772	1087	11.580626659
0	31792	1088	12.580626659
0	31793	1088	12.580626659
0	31830	1090	0.184025738
0	31831	1090	0.184025738
0	31858	1091	1.184025738
0	31859	1091	1.184025738
0	31880	1092	1.607462343
0	31881	1092	1.607462343
0	31930	1093	2.607462343
0	31931	1093	2.607462343
0	31987	1095	0.868417883
0	31988	1095	0.868417883
0	32023	1096	1.868417883
0	32024	1096	1.868417883
0	32170	1104	0.423116481
0	32171	1104	0.423116481
0	32228	1105	1.423116481
0	32229	1105	1.423116481
0	32275	1106	1.234016431
0	32276	1106	1.234016431
0	32301	1107	2.234016431
0	32302	1107	2.234016431
0	32509	1114	0.831759408
0	32510	1114	0.831759408