file 3767379 1741288819                                         
version 3
run Sched1-0-20250306-21:19:58-12896
attr configname Sched1
attr datetime 20250306-21:19:58
attr datetimef 20250306-211958
attr experiment Sched1
attr inifile omnetpp.ini
attr iterationvars ""
attr iterationvarsd ""
attr iterationvarsf ""
attr measurement ""
attr network RadioSch2
attr processid 12896
attr repetition 0
attr replication #0
attr resultdir results
attr runnumber 0
attr seedset 0
config description "low job arrival rate"
config *.scalar-recording true
config *.vector-recording true
config **.user[*].generator.sendIaTime "0.2 ms"
config *.user[*].generator.networkLoad 0.8
config *.user[*].generator.packetsPerUser 4
config *.user[*].generator.channels 14
config *.user[*].generator.usersCount 7
config *.user[*].generator.MAX_Sim "10 s"
config *.usersCount 7
config network RadioSch2
config sim-time-limit 100h
config cpu-time-limit 300s
config simtime-resolution ns
config record-eventlog true

vector 0 RadioSch2.sink lifetime_user0:vector ETV
attr interpolationmode none
attr recordingmode vector
attr title "User 0 Packet Lifetime"
attr unit s
vector 1 RadioSch2.sink lifetime_user1:vector ETV
attr interpolationmode none
attr recordingmode vector
attr title "User 1 Packet Lifetime"
attr unit s
vector 2 RadioSch2.sink lifetime_user2:vector ETV
attr interpolationmode none
attr recordingmode vector
attr title "User 2 Packet Lifetime"
attr unit s
vector 3 RadioSch2.sink lifetime_user3:vector ETV
attr interpolationmode none
attr recordingmode vector
attr title "User 3 Packet Lifetime"
attr unit s
vector 4 RadioSch2.sink lifetime_user4:vector ETV
attr interpolationmode none
attr recordingmode vector
attr title "User 4 Packet Lifetime"
attr unit s
vector 5 RadioSch2.sink lifetime_user5:vector ETV
attr interpolationmode none
attr recordingmode vector
attr title "User 5 Packet Lifetime"
attr unit s
vector 6 RadioSch2.sink lifetime_user6:vector ETV
attr interpolationmode none
attr recordingmode vector
attr title "User 6 Packet Lifetime"
attr unit s
vector 7 RadioSch2.flc "delay vector" ETV
vector 8 RadioSch2.flc "result nescalat" ETV
vector 9 RadioSch2.flc "res scalat" ETV
vector 10 RadioSch2.flc "weight vector" ETV
0	2233 429011 95 498525 1 10000 16121 0.001943467 27.242927597 62715.369461256 465782.75687345
1	431244 441542 97 498528 1 10000 16485 0.002018077 53.913867507 107524.14822025 1548447.6970794
2	872786 419072 99 498533 1 10000 15780 0.000139547 5.967370444 11708.945618748 14510.812277759
3	1291858 424429 101 498538 1 10000 15984 0.000141634 7.917424559 12540.778523528 17527.350978376
4	1716287 433724 103 498309 1 9996 16224 0.003865952 31.929462609 99382.893403681 1012627.7240728
5	2150011 437546 108 498541 1 10000 16268 0.003299349 51.823357215 149317.88430564 2743236.3474952
6	2587557 438733 113 498269 1 9995 16240 0.00088862 54.984343033 195986.308461 4103558.5535511
7	3026290 211065 10 498523 0 10000 10001 -47648 1100 -107274775 1735835976393
8	3237355 176674 10 498523 0 10000 10001 14 35 140056 1962254
9	3414029 176672 10 498523 0 10000 10001 -8 2 -79988 639944
10	3590701 176676 10 498523 0 10000 10001 1 14 10030 10374

