file 2578545 1740848356                                         
version 3
run Sched1-0-20250301-18:59:04-14732
attr configname Sched1
attr datetime 20250301-18:59:04
attr datetimef 20250301-185904
attr experiment Sched1
attr inifile omnetpp.ini
attr iterationvars ""
attr iterationvarsd ""
attr iterationvarsf ""
attr measurement ""
attr network RadioSch2
attr processid 14732
attr repetition 0
attr replication #0
attr resultdir results
attr runnumber 0
attr seedset 0
config description "low job arrival rate"
config *.scalar-recording true
config *.vector-recording true
config **.user[*].generator.sendIaTime "0.2 ms"
config *.user[*].generator.networkLoad 0.5
config *.user[*].generator.packetsPerUser 4
config *.user[*].generator.channels 14
config *.user[*].generator.usersCount 7
config *.user[*].generator.MAX_Sim "10 s"
config *.usersCount 7
config network RadioSch2
config sim-time-limit 100h
config cpu-time-limit 300s
config simtime-resolution ns
config record-eventlog true

vector 0 RadioSch2.sink lifetime_user0:vector ETV
attr interpolationmode none
attr recordingmode vector
attr title "User 0 Packet Lifetime"
attr unit s
vector 1 RadioSch2.sink lifetime_user1:vector ETV
attr interpolationmode none
attr recordingmode vector
attr title "User 1 Packet Lifetime"
attr unit s
vector 2 RadioSch2.sink lifetime_user2:vector ETV
attr interpolationmode none
attr recordingmode vector
attr title "User 2 Packet Lifetime"
attr unit s
vector 3 RadioSch2.sink lifetime_user3:vector ETV
attr interpolationmode none
attr recordingmode vector
attr title "User 3 Packet Lifetime"
attr unit s
vector 4 RadioSch2.sink lifetime_user4:vector ETV
attr interpolationmode none
attr recordingmode vector
attr title "User 4 Packet Lifetime"
attr unit s
vector 5 RadioSch2.sink lifetime_user5:vector ETV
attr interpolationmode none
attr recordingmode vector
attr title "User 5 Packet Lifetime"
attr unit s
vector 6 RadioSch2.sink lifetime_user6:vector ETV
attr interpolationmode none
attr recordingmode vector
attr title "User 6 Packet Lifetime"
attr unit s
vector 7 RadioSch2.flc "delay vector" ETV
vector 8 RadioSch2.flc "result nescalat" ETV
vector 9 RadioSch2.flc "res scalat" ETV
vector 10 RadioSch2.flc "weight vector" ETV
0	2233 276248 86 317899 1 9998 10452 0.001860098 12.580626659 21503.272916664 74637.744511552
1	278481 264675 88 317795 1 9996 10008 0.000759992 13.949262143 20576.790361136 77990.291023543
2	543156 262268 90 317946 1 10000 9922 0.000459632 12.695982542 15596.255994872 46652.707976338
3	805424 260799 92 317949 1 10000 9867 2.3612e-05 11.05522736 16288.719887834 50866.833953525
4	1066223 269036 94 317938 1 9999 10184 0.000545751 8.419545173 10075.096408988 20603.068966882
5	1335259 265031 99 317862 1 9997 10032 0.000111716 8.256490211 10095.979043632 19753.507835523
6	1600290 263226 104 317912 1 9998 9956 0.000276558 7.017156062 9494.440600056 16870.90358747
7	1863516 188886 10 317944 0 10000 10001 781 1591 9924149 9858863359
8	2052402 175370 10 317944 0 10000 10001 1 64 634677 40518815
9	2227772 165448 10 317944 0 10000 10001 -7 7 68852 485318
10	2393220 185323 10 317944 0 10000 10001 1 14 129162 1678008

