version 3
run Sched1-0-20250301-19:46:55-4312
attr configname Sched1
attr datetime 20250301-19:46:55
attr datetimef 20250301-194655
attr experiment Sched1
attr inifile omnetpp.ini
attr iterationvars ""
attr iterationvarsd ""
attr iterationvarsf ""
attr measurement ""
attr network RadioSch2
attr processid 4312
attr repetition 0
attr replication #0
attr resultdir results
attr runnumber 0
attr seedset 0
config description "low job arrival rate"
config *.scalar-recording true
config *.vector-recording true
config **.user[*].generator.sendIaTime "0.2 ms"
config *.user[*].generator.networkLoad 0.5
config *.user[*].generator.packetsPerUser 4
config *.user[*].generator.channels 14
config *.user[*].generator.usersCount 7
config *.user[*].generator.MAX_Sim "10 s"
config *.usersCount 7
config network RadioSch2
config sim-time-limit 100h
config cpu-time-limit 300s
config simtime-resolution ns
config record-eventlog true

vector 0 RadioSch2.sink lifetime_user0:vector ETV
attr interpolationmode none
attr recordingmode vector
attr title "User 0 Packet Lifetime"
attr unit s
vector 1 RadioSch2.sink lifetime_user1:vector ETV
attr interpolationmode none
attr recordingmode vector
attr title "User 1 Packet Lifetime"
attr unit s
vector 2 RadioSch2.sink lifetime_user2:vector ETV
attr interpolationmode none
attr recordingmode vector
attr title "User 2 Packet Lifetime"
attr unit s
vector 3 RadioSch2.sink lifetime_user3:vector ETV
attr interpolationmode none
attr recordingmode vector
attr title "User 3 Packet Lifetime"
attr unit s
vector 4 RadioSch2.sink lifetime_user4:vector ETV
attr interpolationmode none
attr recordingmode vector
attr title "User 4 Packet Lifetime"
attr unit s
vector 5 RadioSch2.sink lifetime_user5:vector ETV
attr interpolationmode none
attr recordingmode vector
attr title "User 5 Packet Lifetime"
attr unit s
vector 6 RadioSch2.sink lifetime_user6:vector ETV
attr interpolationmode none
attr recordingmode vector
attr title "User 6 Packet Lifetime"
attr unit s
vector 7 RadioSch2.flc "delay vector" ETV
vector 8 RadioSch2.flc "result nescalat" ETV
vector 9 RadioSch2.flc "res scalat" ETV
vector 10 RadioSch2.flc "weight vector" ETV
0	86	1	1
0	134	2	2
0	135	2	2
0	190	3	3
0	306	9	0.105902312
0	307	9	0.105902312
0	308	9	0.105902312
0	335	10	1.105902312
0	336	10	0.85744115
0	372	11	1.85744115
0	373	11	1.85744115
0	392	12	2.85744115
0	393	12	2.305326396
0	417	13	3.305326396
0	418	13	3.305326396
0	456	14	4.305326396
0	519	16	0.749155637
0	520	16	0.749155637
0	534	17	1.749155637
0	535	17	1.749155637
0	558	18	0.34936809
0	559	18	0.34936809
0	582	19	1.34936809
0	583	19	1.34936809
0	781	28	0.333720958
0	782	28	0.333720958
0	821	29	1.333720958
0	822	29	1.333720958
0	1236	41	0.831847527
0	1237	41	0.831847527
0	1288	42	1.831847527
0	1289	42	1.831847527
0	1322	43	2.112018161
0	1323	43	2.112018161
0	1351	44	3.112018161
0	1352	44	3.112018161
0	1393	45	3.905286538
0	1394	45	3.905286538
0	1426	46	4.905286538
0	1427	46	4.905286538
0	1468	47	1.358900557
0	1469	47	1.358900557
0	1499	48	2.358900557
0	1500	48	2.358900557
0	1524	49	0.230997673
0	1525	49	0.230997673
0	1563	50	1.230997673
0	1564	50	1.230997673
0	1844	59	0.839622627
0	1845	59	0.839622627
0	1857	60	1.839622627
0	1858	60	1.839622627
0	1960	63	0.31594871
0	1961	63	0.31594871
0	1999	64	1.31594871
0	2000	64	1.31594871
0	2200	70	0.894113658
0	2201	70	0.894113658
0	2228	71	1.894113658
0	2229	71	1.894113658
0	2309	75	0.721522223
0	2310	75	0.721522223
0	2339	76	1.721522223
0	2340	76	1.721522223
0	2545	82	0.706663643
0	2546	82	0.706663643
0	2593	83	1.706663643
0	2594	83	1.706663643
0	2613	84	1.877922914
0	2614	84	1.877922914
0	2655	85	2.877922914
0	2656	85	2.877922914
0	2783	89	0.432594918
0	2784	89	0.432594918
0	2828	90	1.432594918
0	2829	90	1.432594918
0	2880	91	1.235281388
0	2881	91	1.235281388
0	2949	92	2.235281388
0	3031	93	3.235281388
0	3032	93	0.888206161
0	3076	94	1.888206161
0	3077	94	1.888206161
0	3101	95	2.888206161
0	3102	95	2.606198368
0	3154	96	3.606198368
0	3155	96	3.606198368
0	3184	97	4.606198368
0	3185	97	1.459962
0	3242	98	2.459962
0	3243	98	2.459962
0	3276	99	3.459962
0	3277	99	1.959714228
0	3304	100	2.959714228
0	3305	100	2.959714228
0	3348	101	3.959714228
0	3349	101	1.726407071
0	3390	102	2.726407071
0	3391	102	2.726407071
0	3427	103	3.726407071
0	3615	111	0.64982914
0	3616	111	0.64982914
0	3655	112	1.64982914
0	3656	112	1.64982914
0	3682	113	1.452417128
0	3683	113	1.452417128
0	3714	114	2.452417128
0	3715	114	2.452417128
0	3979	126	0.416162924
0	3980	126	0.416162924
0	3981	126	0.416162924
0	4014	127	1.416162924
0	4149	133	0.842749983
0	4150	133	0.842749983
0	4166	134	1.842749983
0	4167	134	1.842749983
0	4294	137	0.913797245
0	4295	137	0.913797245
0	4343	138	1.913797245
0	4344	138	1.913797245
0	4387	139	1.526081712
0	4388	139	1.526081712
0	4422	140	2.526081712
0	4423	140	2.526081712
0	4455	141	2.18978138
0	4456	141	2.18978138
0	4502	142	3.18978138
0	4503	142	3.18978138
0	4546	143	1.928760255
0	4547	143	1.928760255
0	4574	144	2.928760255
0	4575	144	2.928760255
0	4594	145	0.607717668
0	4595	145	0.607717668
0	4605	146	1.607717668
0	4606	146	1.607717668
0	4641	148	0.04430246
0	4642	148	0.04430246
0	4670	149	1.04430246
0	4671	149	1.04430246
0	4692	150	1.666035514
0	4693	150	1.666035514
0	4722	151	2.666035514
0	4723	151	2.666035514
0	5177	166	0.884961034
0	5178	166	0.884961034
0	5209	167	1.884961034
0	5210	167	1.884961034
0	5612	183	0.404962028
0	5613	183	0.404962028
0	5614	183	0.404962028
0	5649	184	1.404962028
0	5702	186	0.763066451
0	5703	186	0.763066451
0	5741	187	1.763066451
0	5742	187	1.763066451
0	5799	188	1.401153685
0	5800	188	1.401153685
0	5861	189	2.401153685
0	5862	189	2.401153685
0	5937	191	0.621081723
0	5938	191	0.621081723
0	5955	192	1.621081723
0	5956	192	1.621081723
0	6278	201	0.767103206
0	6279	201	0.767103206
0	6342	202	1.767103206
0	6343	202	1.767103206
0	6394	203	1.925435593
0	6429	204	2.925435593
0	6430	204	2.925435593
0	6458	205	3.925435593
0	6509	206	0.31038054
0	6544	207	1.31038054
0	6545	207	1.31038054
0	6591	208	2.31038054
0	6752	215	0.959619487
0	6753	215	0.959619487
0	6819	216	1.959619487
0	6820	216	1.959619487
0	6853	217	2.674271461
0	6854	217	2.674271461
0	6877	218	3.674271461
0	6878	218	3.674271461
0	6901	219	3.562619274
0	6902	219	3.562619274
0	6926	220	4.562619274
0	6927	220	4.562619274
0	6974	221	0.358168723
0	6975	221	0.358168723
0	7013	222	1.358168723
0	7014	222	1.358168723
0	7167	230	0.043265174
0	7168	230	0.043265174
0	7229	231	1.043265174
0	7230	231	1.043265174
0	7265	232	1.91870144
0	7266	232	1.91870144
0	7294	233	2.91870144
0	7295	233	2.91870144
0	7326	234	3.463909326
0	7327	234	3.463909326
0	7341	235	4.463909326
0	7342	235	4.463909326
0	7353	236	4.107758015
0	7354	236	4.107758015
0	7380	237	5.107758015
0	7381	237	5.107758015
0	8015	257	0.198029343
0	8016	257	0.198029343
0	8057	258	1.198029343
0	8058	258	1.198029343
0	8101	259	1.88663652
0	8102	259	1.88663652
0	8135	260	2.88663652
0	8136	260	2.88663652
0	8187	261	2.048064408
0	8232	262	3.048064408
0	8233	262	3.048064408
0	8281	263	4.048064408
0	8325	264	0.979307237
0	8326	264	0.979307237
0	8365	265	1.979307237
0	8366	265	1.979307237
0	8837	281	0.367649673
0	8838	281	0.367649673
0	8890	282	1.367649673
0	8891	282	1.367649673
0	8947	283	1.925102649
0	8948	283	1.925102649
0	8982	284	2.925102649
0	8983	284	2.925102649
0	9043	286	0.560178983
0	9044	286	0.560178983
0	9093	287	1.560178983
0	9094	287	1.560178983
0	9145	288	2.420794797
0	9146	288	2.420794797
0	9169	289	3.420794797
0	9170	289	3.420794797
0	9190	290	3.914381275
0	9191	290	3.914381275
0	9207	291	4.914381275
0	9208	291	4.914381275
0	9323	297	0.990388171
0	9324	297	0.990388171
0	9342	298	1.990388171
0	9343	298	1.990388171
0	9523	305	0.917317364
0	9524	305	0.917317364
0	9543	306	1.917317364
0	9544	306	1.917317364
0	9583	307	0.037835261
0	9584	307	0.037835261
0	9620	308	1.037835261
0	9621	308	1.037835261
0	9651	309	1.68610188
0	9652	309	1.68610188
0	9709	310	2.68610188
0	9710	310	2.68610188
0	9727	311	1.812082069
0	9728	311	1.812082069
0	9780	312	2.812082069
0	9781	312	2.812082069
0	9821	313	1.278829364
0	9822	313	1.278829364
0	9842	314	2.278829364
0	9843	314	2.278829364
0	9969	320	0.318081842
0	9970	320	0.318081842
0	10012	321	1.318081842
0	10013	321	1.318081842
0	10220	329	0.586576319
0	10221	329	0.586576319
0	10231	330	1.586576319
0	10232	330	1.586576319
0	10407	338	0.01923581
0	10408	338	0.01923581
0	10441	339	1.01923581
0	10442	339	1.01923581
0	10477	340	1.86525327
0	10478	340	1.86525327
0	10508	341	2.86525327
0	10509	341	2.86525327
0	10534	342	1.250853439
0	10535	342	1.250853439
0	10569	343	2.250853439
0	10570	343	2.250853439
0	10688	348	0.771515943
0	10689	348	0.771515943
0	10730	349	1.771515943
0	10731	349	1.771515943
0	10782	353	0.819214203
0	10783	353	0.819214203
0	10794	354	1.819214203
0	10795	354	1.819214203
0	10982	360	0.885084029
0	10983	360	0.885084029
0	11006	361	1.885084029
0	11007	361	1.885084029
0	11068	362	0.595109514
0	11122	363	1.595109514
0	11123	363	1.595109514
0	11166	364	2.595109514
0	11167	364	1.402446468
0	11202	365	2.402446468
0	11203	365	2.402446468
0	11223	366	3.402446468
0	11381	371	0.634884454
0	11382	371	0.634884454
0	11409	372	1.634884454
0	11410	372	1.634884454
0	11715	381	0.050854231
0	11716	381	0.050854231
0	11758	382	1.050854231
0	11759	382	1.050854231
0	11833	385	0.748104945
0	11834	385	0.748104945
0	11871	386	1.748104945
0	11872	386	1.748104945
0	11884	387	1.746610276
0	11885	387	1.746610276
0	11921	388	2.746610276
0	11922	388	2.746610276
0	11952	389	3.191255499
0	11953	389	3.191255499
0	11978	390	4.191255499
0	11979	390	4.191255499
0	12103	394	0.530418146
0	12147	395	1.530418146
0	12148	395	1.530418146
0	12192	396	2.530418146
0	12193	396	1.617068705
0	12218	397	2.617068705
0	12219	397	2.617068705
0	12263	398	3.617068705
0	12264	398	0.240825295
0	12310	399	1.240825295
0	12311	399	1.240825295
0	12338	400	2.240825295
0	12339	400	1.84542082
0	12352	401	2.84542082
0	12353	401	2.84542082
0	12372	402	3.84542082
0	12373	402	3.509943851
0	12394	403	4.509943851
0	12395	403	4.509943851
0	12406	404	5.509943851
0	12701	414	0.523468515
0	12702	414	0.523468515
0	12712	415	1.523468515
0	12713	415	1.523468515
0	13095	428	0.729760111
0	13096	428	0.729760111
0	13097	428	0.729760111
0	13146	429	1.729760111
0	13184	430	0.967943743
0	13185	430	0.967943743
0	13261	431	1.967943743
0	13262	431	1.967943743
0	13283	432	1.250424517
0	13284	432	1.250424517
0	13298	433	2.250424517
0	13299	433	2.250424517
0	13356	435	0.583416949
0	13357	435	0.583416949
0	13410	436	1.583416949
0	13411	436	1.583416949
0	13458	437	1.901008481
0	13459	437	1.901008481
0	13476	438	2.901008481
0	13477	438	2.901008481
0	13491	439	3.794312733
0	13492	439	3.794312733
0	13513	440	4.794312733
0	13514	440	4.794312733
0	13562	441	0.718433592
0	13563	441	0.718433592
0	13592	442	1.718433592
0	13593	442	1.718433592
0	13630	443	2.47599804
0	13631	443	2.47599804
0	13657	444	3.47599804
0	13658	444	3.47599804
0	13863	451	0.825971719
0	13864	451	0.825971719
0	13899	452	1.825971719
0	13900	452	1.825971719
0	13999	456	0.05150573
0	14000	456	0.05150573
0	14022	457	1.05150573
0	14023	457	1.05150573
0	14062	458	0.375928215
0	14063	458	0.375928215
0	14074	459	1.375928215
0	14075	459	1.375928215
0	14091	460	2.116037373
0	14092	460	2.116037373
0	14111	461	3.116037373
0	14112	461	3.116037373
0	14150	462	1.97529858
0	14151	462	1.97529858
0	14175	463	2.97529858
0	14176	463	2.97529858
0	14195	464	2.981760977
0	14196	464	2.981760977
0	14225	465	3.981760977
0	14226	465	3.981760977
0	14277	466	3.125882202
0	14278	466	3.125882202
0	14298	467	4.125882202
0	14299	467	4.125882202
0	14313	468	2.089938439
0	14314	468	2.089938439
0	14337	469	3.089938439
0	14338	469	3.089938439
0	14491	472	0.120861047
0	14492	472	0.120861047
0	14522	473	1.120861047
0	14523	473	1.120861047
0	14544	474	2.120566248
0	14545	474	2.120566248
0	14574	475	3.120566248
0	14575	475	3.120566248
0	14678	478	0.23374292
0	14679	478	0.23374292
0	14711	479	1.23374292
0	14712	479	1.23374292
0	14732	480	1.657027901
0	14733	480	1.657027901
0	14758	481	2.657027901
0	14759	481	2.657027901
0	14878	485	0.030660411
0	14879	485	0.030660411
0	14897	486	1.030660411
0	14898	486	1.030660411
0	15021	490	0.622546536
0	15022	490	0.622546536
0	15051	491	1.622546536
0	15052	491	1.622546536
0	15208	495	0.697514041
0	15209	495	0.697514041
0	15263	496	1.697514041
0	15264	496	1.697514041
0	15298	497	2.668283438
0	15299	497	2.668283438
0	15330	498	3.668283438
0	15331	498	3.668283438
0	15381	499	4.024254262
0	15382	499	4.024254262
0	15401	500	5.024254262
0	15402	500	5.024254262
0	15423	501	5.888342013
0	15424	501	5.888342013
0	15445	502	6.888342013
0	15446	502	6.888342013
0	15495	503	7.116648481
0	15496	503	7.116648481
0	15539	504	8.116648481
0	15540	504	8.116648481
0	15580	505	7.583382037
0	15581	505	7.583382037
0	15612	506	8.583382037
0	15613	506	8.583382037
0	15649	507	8.97582287
0	15650	507	8.97582287
0	15690	508	9.97582287
0	15691	508	9.97582287
0	15723	509	2.893135438
0	15724	509	2.893135438
0	15749	510	3.893135438
0	15750	510	3.893135438
0	15770	511	1.464498802
0	15771	511	1.464498802
0	15824	512	2.464498802
0	15825	512	2.464498802
0	16073	520	0.53356378
0	16074	520	0.53356378
0	16095	521	1.53356378
0	16096	521	1.53356378
0	16144	523	0.889865548
0	16145	523	0.889865548
0	16175	524	1.889865548
0	16176	524	1.889865548
0	16470	535	0.879949251
0	16471	535	0.879949251
0	16522	536	1.879949251
0	16523	536	1.879949251
0	16566	537	1.59357942
0	16567	537	1.59357942
0	16620	538	2.59357942
0	16684	539	3.59357942
0	16685	539	3.158544279
0	16756	540	4.158544279
0	16785	541	5.158544279
0	16786	541	5.158544279
0	16853	543	0.254827517
0	16854	543	0.254827517
0	16880	544	1.254827517
0	16881	544	1.254827517
0	16909	545	1.034748536
0	16910	545	1.034748536
0	16958	546	2.034748536
0	16959	546	2.034748536
0	16989	547	1.643328479
0	16990	547	1.643328479
0	17014	548	2.643328479
0	17015	548	2.643328479
0	17056	549	3.140004569
0	17057	549	3.140004569
0	17132	550	4.140004569
0	17169	551	5.140004569
0	17170	551	1.007554012
0	17205	552	2.007554012
0	17206	552	2.007554012
0	17222	553	3.007554012
0	17255	554	0.646353306
0	17256	554	0.646353306
0	17285	555	1.646353306
0	17286	555	1.646353306
0	17323	556	0.989630892
0	17324	556	0.989630892
0	17345	557	1.989630892
0	17346	557	1.989630892
0	17376	558	0.504380321
0	17377	558	0.504380321
0	17418	559	1.504380321
0	17419	559	1.504380321
0	17446	560	1.099010622
0	17447	560	1.099010622
0	17459	561	2.099010622
0	17460	561	2.099010622
0	17488	562	0.445392756
0	17489	562	0.445392756
0	17520	563	1.445392756
0	17521	563	1.445392756
0	17685	567	0.304927146
0	17686	567	0.304927146
0	17687	567	0.304927146
0	17712	568	1.304927146
0	17810	571	0.857508567
0	17811	571	0.857508567
0	17845	572	1.857508567
0	17846	572	1.857508567
0	17952	575	0.419960791
0	17953	575	0.419960791
0	17995	576	1.419960791
0	17996	576	1.419960791
0	18253	583	0.29862996
0	18254	583	0.29862996
0	18255	583	0.29862996
0	18256	583	0.29862996
0	18304	585	0.027678225
0	18305	585	0.027678225
0	18330	586	1.027678225
0	18331	586	1.027678225
0	18436	595	0.957179853
0	18437	595	0.957179853
0	18438	595	0.957179853
0	18463	596	1.957179853
0	18464	596	1.70182038
0	18475	597	2.70182038
0	18476	597	2.70182038
0	18484	598	3.70182038
0	18485	598	2.315584229
0	18491	599	3.315584229
0	18492	599	3.315584229
0	18508	600	4.315584229
0	18615	602	0.473578339
0	18616	602	0.473578339
0	18647	603	1.473578339
0	18648	603	1.473578339
0	18681	604	1.770758468
0	18682	604	1.770758468
0	18718	605	2.770758468
0	18719	605	2.770758468
0	18767	606	1.343685192
0	18768	606	1.343685192
0	18786	607	2.343685192
0	18787	607	2.343685192
0	18813	608	2.653337526
0	18814	608	2.653337526
0	18847	609	3.653337526
0	18848	609	3.653337526
0	18960	612	0.309420414
0	18961	612	0.309420414
0	18998	613	1.309420414
0	18999	613	1.309420414
0	19140	617	0.007989913
0	19141	617	0.007989913
0	19142	617	0.007989913
0	19176	618	1.007989913
0	19259	621	0.581590933
0	19260	621	0.581590933
0	19261	621	0.581590933
0	19274	622	1.581590933
0	19362	625	0.89561875
0	19363	625	0.89561875
0	19390	626	1.89561875
0	19391	626	1.89561875
0	19419	627	2.235872224
0	19420	627	2.235872224
0	19440	628	3.235872224
0	19441	628	3.235872224
0	19489	629	3.507476463
0	19490	629	3.507476463
0	19520	630	4.507476463
0	19521	630	4.507476463
0	19538	631	3.006104177
0	19539	631	3.006104177
0	19568	632	4.006104177
0	19569	632	4.006104177
0	19622	633	4.513593035
0	19623	633	4.513593035
0	19662	634	5.513593035
0	19663	634	5.513593035
0	19763	636	0.281608781
0	19764	636	0.281608781
0	19765	636	0.281608781
0	19802	637	1.281608781
0	19803	637	0.335119658
0	19837	638	1.335119658
0	19838	638	1.335119658
0	19862	639	2.335119658
0	19863	639	1.79876034
0	19891	640	2.79876034
0	19892	640	2.79876034
0	19935	641	3.79876034
0	19936	641	1.269954833
0	19987	642	2.269954833
0	19988	642	2.269954833
0	20019	643	3.269954833
0	20020	643	1.707901853
0	20054	644	2.707901853
0	20055	644	2.707901853
0	20078	645	3.707901853
0	20079	645	3.687643151
0	20121	646	4.687643151
0	20122	646	4.687643151
0	20150	647	5.687643151
0	20151	647	2.799528677
0	20199	648	3.799528677
0	20227	649	4.799528677
0	20228	649	4.799528677
0	20229	649	3.16583031
0	20242	650	4.16583031
0	20243	650	4.16583031
0	20259	651	5.16583031
0	20312	653	0.344836384
0	20313	653	0.344836384
0	20351	654	1.344836384
0	20352	654	1.344836384
0	20434	656	0.909922245
0	20435	656	0.909922245
0	20486	657	1.909922245
0	20487	657	1.909922245
0	20521	658	1.431173346
0	20522	658	1.431173346
0	20562	659	2.431173346
0	20563	659	2.431173346
0	20721	663	0.173834269
0	20722	663	0.173834269
0	20723	663	0.173834269
0	20724	663	0.173834269
0	20779	666	0.868969122
0	20780	666	0.868969122
0	20781	666	0.868969122
0	20825	667	1.868969122
0	20826	667	0.028127349
0	20856	668	1.028127349
0	20857	668	1.028127349
0	20880	669	2.028127349
0	20881	669	1.935021993
0	20905	670	2.935021993
0	20906	670	2.935021993
0	20953	671	3.935021993
0	20954	671	0.092746926
0	20991	672	1.092746926
0	20992	672	1.092746926
0	21023	673	2.092746926
0	21055	674	0.35919647
0	21056	674	0.35919647
0	21107	675	1.35919647
0	21108	675	1.35919647
0	21141	676	1.758205667
0	21142	676	1.758205667
0	21171	677	2.758205667
0	21172	677	2.758205667
0	21218	678	2.368407997
0	21219	678	2.368407997
0	21276	679	3.368407997
0	21277	679	3.368407997
0	21335	680	2.098851029
0	21336	680	2.098851029
0	21397	681	3.098851029
0	21398	681	3.098851029
0	21427	682	1.815584259
0	21428	682	1.815584259
0	21466	683	2.815584259
0	21467	683	2.815584259
0	21602	687	0.011371031
0	21603	687	0.011371031
0	21640	688	1.011371031
0	21641	688	1.011371031
0	21674	689	1.284913764
0	21675	689	1.284913764
0	21718	690	2.284913764
0	21719	690	2.284913764
0	21806	692	0.383650815
0	21807	692	0.383650815
0	21831	693	1.383650815
0	21832	693	1.383650815
0	22031	699	0.748248818
0	22032	699	0.748248818
0	22060	700	1.748248818
0	22061	700	1.748248818
0	22112	701	0.961549111
0	22113	701	0.961549111
0	22160	702	1.961549111
0	22161	702	1.961549111
0	22217	703	2.930172574
0	22246	704	3.930172574
0	22247	704	3.930172574
0	22279	705	4.930172574
0	22307	706	0.423586479
0	22308	706	0.423586479
0	22331	707	1.423586479
0	22332	707	1.423586479
0	22353	708	1.335472417
0	22354	708	1.335472417
0	22373	709	2.335472417
0	22374	709	2.335472417
0	22385	710	2.594622396
0	22386	710	2.594622396
0	22412	711	3.594622396
0	22413	711	3.594622396
0	22466	712	0.540371063
0	22467	712	0.540371063
0	22505	713	1.540371063
0	22506	713	1.540371063
0	22547	714	1.742470556
0	22548	714	1.742470556
0	22587	715	2.742470556
0	22588	715	2.742470556
0	22617	716	2.870114681
0	22618	716	2.870114681
0	22701	717	3.870114681
0	22702	717	3.870114681
0	22788	720	0.7283239
0	22789	720	0.7283239
0	22803	721	1.7283239
0	22804	721	1.7283239
0	22880	724	0.869896004
0	22881	724	0.869896004
0	22908	725	1.869896004
0	22909	725	1.869896004
0	22973	727	0.598834677
0	22974	727	0.598834677
0	23006	728	1.598834677
0	23007	728	1.598834677
0	23030	729	2.591700245
0	23031	729	2.591700245
0	23086	730	3.591700245
0	23123	731	4.591700245
0	23124	731	3.496162582
0	23150	732	4.496162582
0	23151	732	4.496162582
0	23162	733	5.496162582
0	23163	733	2.154905467
0	23196	734	3.154905467
0	23197	734	3.154905467
0	23213	735	4.154905467
0	23214	735	1.927829561
0	23245	736	2.927829561
0	23246	736	2.927829561
0	23281	737	3.927829561
0	23282	737	3.384155932
0	23323	738	4.384155932
0	23324	738	4.384155932
0	23363	739	5.384155932
0	23364	739	5.234001427
0	23409	740	6.234001427
0	23410	740	6.234001427
0	23439	741	7.234001427
0	23440	741	4.969496592
0	23487	742	5.969496592
0	23488	742	5.969496592
0	23519	743	6.969496592
0	23520	743	0.583074805
0	23533	744	1.583074805
0	23534	744	1.583074805
0	23564	745	2.583074805
0	23640	746	0.791402901
0	23641	746	0.791402901
0	23670	747	1.791402901
0	23671	747	1.791402901
0	23707	748	2.600778037
0	23708	748	2.600778037
0	23727	749	3.600778037
0	23728	749	3.600778037
0	23754	750	4.487740915
0	23755	750	4.487740915
0	23808	751	5.487740915
0	23809	751	5.487740915
0	23842	752	1.015148211
0	23843	752	1.015148211
0	23867	753	2.015148211
0	23868	753	2.015148211
0	23891	754	0.680635819
0	23892	754	0.680635819
0	23930	755	1.680635819
0	23931	755	1.680635819
0	23968	757	0.898144386
0	23969	757	0.898144386
0	23985	758	1.898144386
0	23986	758	1.898144386
0	24072	761	0.19186293
0	24073	761	0.19186293
0	24092	762	1.19186293
0	24093	762	1.19186293
0	24124	763	0.360508636
0	24125	763	0.360508636
0	24146	764	1.360508636
0	24147	764	1.360508636
0	24540	777	0.753879486
0	24541	777	0.753879486
0	24551	778	1.753879486
0	24552	778	1.753879486
0	24618	779	0.013361606
0	24619	779	0.013361606
0	24669	780	1.013361606
0	24670	780	1.013361606
0	24715	781	1.19026515
0	24716	781	1.19026515
0	24749	782	2.19026515
0	24750	782	2.19026515
0	24787	783	1.697508873
0	24788	783	1.697508873
0	24816	784	2.697508873
0	24817	784	2.697508873
0	25103	794	0.831244257
0	25104	794	0.831244257
0	25123	795	1.831244257
0	25124	795	1.831244257
0	25153	796	1.713701694
0	25154	796	1.713701694
0	25169	797	2.713701694
0	25170	797	2.713701694
0	25361	805	0.286805918
0	25362	805	0.286805918
0	25385	806	1.286805918
0	25386	806	1.286805918
0	25417	807	1.775910738
0	25418	807	1.775910738
0	25460	808	2.775910738
0	25461	808	2.775910738
0	25500	809	0.474573745
0	25501	809	0.474573745
0	25525	810	1.474573745
0	25526	810	1.474573745
0	25604	814	0.579784263
0	25605	814	0.579784263
0	25636	815	1.579784263
0	25637	815	1.579784263
0	25984	825	0.949559834
0	25985	825	0.949559834
0	26020	826	1.949559834
0	26021	826	1.949559834
0	26067	827	1.705526011
0	26068	827	1.705526011
0	26086	828	2.705526011
0	26087	828	2.705526011
0	26132	829	2.974211146
0	26133	829	2.974211146
0	26165	830	3.974211146
0	26166	830	3.974211146
0	26192	831	4.897508478
0	26193	831	4.897508478
0	26232	832	5.897508478
0	26233	832	5.897508478
0	26248	833	1.092360626
0	26249	833	1.092360626
0	26260	834	2.092360626
0	26261	834	2.092360626
0	26289	835	0.785344756
0	26290	835	0.785344756
0	26320	836	1.785344756
0	26321	836	1.785344756
0	26397	841	0.768936421
0	26398	841	0.768936421
0	26422	842	1.768936421
0	26423	842	1.768936421
0	26471	843	1.954176195
0	26472	843	1.954176195
0	26488	844	2.954176195
0	26489	844	2.954176195
0	26512	845	2.13279736
0	26513	845	2.13279736
0	26537	846	3.13279736
0	26538	846	3.13279736
0	26587	847	0.78590314
0	26588	847	0.78590314
0	26623	848	1.78590314
0	26624	848	1.78590314
0	26708	851	0.452610138
0	26709	851	0.452610138
0	26742	852	1.452610138
0	26743	852	1.452610138
0	26799	853	0.47159944
0	26800	853	0.47159944
0	26829	854	1.47159944
0	26830	854	1.47159944
0	26964	857	0.869932125
0	26965	857	0.869932125
0	26991	858	1.869932125
0	26992	858	1.869932125
0	27008	859	2.288205033
0	27009	859	2.288205033
0	27017	860	3.288205033
0	27018	860	3.288205033
0	27024	861	4.088639244
0	27025	861	4.088639244
0	27031	862	5.088639244
0	27032	862	5.088639244
0	27168	868	0.434687208
0	27169	868	0.434687208
0	27179	869	1.434687208
0	27180	869	1.434687208
0	27358	875	0.909324731
0	27359	875	0.909324731
0	27387	876	1.909324731
0	27388	876	1.909324731
0	27472	878	0.029950742
0	27473	878	0.029950742
0	27508	879	1.029950742
0	27509	879	1.029950742
0	27552	880	1.355764423
0	27553	880	1.355764423
0	27586	881	2.355764423
0	27587	881	2.355764423
0	27640	882	0.954487809
0	27641	882	0.954487809
0	27678	883	1.954487809
0	27679	883	1.954487809
0	27760	885	0.37424677
0	27761	885	0.37424677
0	27804	886	1.37424677
0	27805	886	1.37424677
0	27871	888	0.260946743
0	27872	888	0.260946743
0	27891	889	1.260946743
0	27892	889	1.260946743
0	27944	891	0.516816266
0	27945	891	0.516816266
0	27970	892	1.516816266
0	27971	892	1.516816266
0	27985	893	2.148527024
0	27986	893	2.148527024
0	28012	894	3.148527024
0	28013	894	3.148527024
0	28176	900	0.594922669
0	28177	900	0.594922669
0	28196	901	1.594922669
0	28197	901	1.594922669
0	28276	903	0.690334541
0	28277	903	0.690334541
0	28329	904	1.690334541
0	28330	904	1.690334541
0	28369	905	1.003055037
0	28370	905	1.003055037
0	28400	906	2.003055037
0	28401	906	2.003055037
0	28425	907	0.861580125
0	28426	907	0.861580125
0	28457	908	1.861580125
0	28458	908	1.861580125
0	28648	913	0.211828315
0	28649	913	0.211828315
0	28663	914	1.211828315
0	28664	914	1.211828315
0	28702	915	0.264240644
0	28703	915	0.264240644
0	28718	916	1.264240644
0	28719	916	1.264240644
0	28779	918	0.670648278
0	28780	918	0.670648278
0	28810	919	1.670648278
0	28811	919	1.670648278
0	29038	927	0.715158437
0	29039	927	0.715158437
0	29056	928	1.715158437
0	29057	928	1.715158437
0	29131	930	0.327508404
0	29132	930	0.327508404
0	29172	931	1.327508404
0	29173	931	1.327508404
0	29251	935	0.772311288
0	29252	935	0.772311288
0	29284	936	1.772311288
0	29285	936	1.772311288
0	29328	937	0.217089964
0	29329	937	0.217089964
0	29353	938	1.217089964
0	29354	938	1.217089964
0	29429	941	0.55368086
0	29430	941	0.55368086
0	29468	942	1.55368086
0	29469	942	1.55368086
0	29533	944	0.816814106
0	29534	944	0.816814106
0	29577	945	1.816814106
0	29578	945	1.816814106
0	29619	946	2.416789083
0	29620	946	2.416789083
0	29667	947	3.416789083
0	29668	947	3.416789083
0	29700	948	3.833924875
0	29701	948	3.833924875
0	29726	949	4.833924875
0	29727	949	4.833924875
0	30035	956	0.326994274
0	30036	956	0.326994274
0	30072	957	1.326994274
0	30073	957	1.326994274
0	30303	964	0.516640519
0	30304	964	0.516640519
0	30329	965	1.516640519
0	30330	965	1.516640519
0	30356	966	0.909907716
0	30357	966	0.909907716
0	30387	967	1.909907716
0	30388	967	1.909907716
0	30610	978	0.310808498
0	30611	978	0.310808498
0	30619	979	1.310808498
0	30620	979	1.310808498
0	30653	981	0.57660749
0	30654	981	0.57660749
0	30680	982	1.57660749
0	30681	982	1.57660749
0	30724	983	0.708122219
0	30725	983	0.708122219
0	30772	984	1.708122219
0	30773	984	1.708122219
0	30944	991	0.504518674
0	30945	991	0.504518674
0	30977	992	1.504518674
0	30978	992	1.504518674
0	31227	1000	0.23391459
0	31228	1000	0.23391459
0	31303	1001	1.23391459
0	31304	1001	1.23391459
0	31337	1002	1.772810577
0	31338	1002	1.772810577
0	31377	1003	2.772810577
0	31378	1003	2.772810577
0	31412	1004	1.964453903
0	31413	1004	1.964453903
0	31455	1005	2.964453903
0	31456	1005	2.964453903
0	31658	1014	0.669472418
0	31659	1014	0.669472418
0	31710	1015	1.669472418
0	31711	1015	1.669472418
0	31872	1019	0.582554701
0	31873	1019	0.582554701
0	31920	1020	1.582554701
0	31921	1020	1.582554701
0	31961	1021	0.514622908
0	31962	1021	0.514622908
0	31996	1022	1.514622908
0	31997	1022	1.514622908
0	32025	1023	1.200911192
0	32026	1023	1.200911192
0	32041	1024	2.200911192
0	32042	1024	2.200911192
0	32147	1027	0.815075362
0	32148	1027	0.815075362
0	32167	1028	1.815075362
0	32168	1028	1.815075362
0	32255	1030	0.857392262
0	32256	1030	0.857392262
0	32283	1031	1.857392262
0	32284	1031	1.857392262
0	32631	1042	0.510956975
0	32632	1042	0.510956975
0	32633	1042	0.510956975
0	32668	1043	1.510956975
0	32751	1045	0.579503975
0	32752	1045	0.579503975
0	32813	1046	1.579503975
0	32814	1046	1.579503975
0	32848	1047	2.414062328
0	32849	1047	2.414062328
0	32872	1048	3.414062328
0	32873	1048	3.414062328
0	32897	1049	3.147998169
0	32898	1049	3.147998169
0	32916	1050	4.147998169
0	32917	1050	4.147998169
0	32987	1052	0.488788803
0	32988	1052	0.488788803
0	33026	1053	1.488788803
0	33027	1053	1.488788803
0	33070	1054	0.875093495
0	33071	1054	0.875093495
0	33086	1055	1.875093495
0	33087	1055	1.875093495
0	33118	1056	2.721957953
0	33119	1056	2.721957953
0	33143	1057	3.721957953
0	33144	1057	3.721957953
0	33234	1063	0.418564761
0	33235	1063	0.418564761
0	33260	1064	1.418564761
0	33261	1064	1.418564761
0	33299	1065	1.401825089
0	33300	1065	1.401825089
0	33328	1066	2.401825089
0	33329	1066	2.401825089
0	33362	1067	2.805437785
0	33363	1067	2.805437785
0	33390	1068	3.805437785
0	33391	1068	3.805437785
0	33411	1069	4.283626455
0	33412	1069	4.283626455
0	33445	1070	5.283626455
0	33446	1070	5.283626455
0	33476	1071	6.050871439
0	33477	1071	6.050871439
0	33507	1072	7.050871439
0	33508	1072	7.050871439
0	33541	1073	6.742418523
0	33542	1073	6.742418523
0	33580	1074	7.742418523
0	33581	1074	7.742418523
0	33613	1075	5.461510735
0	33614	1075	5.461510735
0	33647	1076	6.461510735
0	33648	1076	6.461510735
0	33676	1077	6.594602296
0	33677	1077	6.594602296
0	33689	1078	7.594602296
0	33690	1078	7.594602296
0	33709	1079	6.751657449
0	33710	1079	6.751657449
0	33731	1080	7.751657449
0	33732	1080	7.751657449
0	33762	1081	8.67293647
0	33763	1081	8.67293647
0	33801	1082	9.67293647
0	33802	1082	9.67293647
0	33830	1083	9.383242543
0	33831	1083	9.383242543
0	33864	1084	10.383242543
0	33865	1084	10.383242543
0	33889	1085	11.056746041
0	33890	1085	11.056746041
0	33923	1086	12.056746041
0	33924	1086	12.056746041
0	33970	1087	11.580626659
0	33971	1087	11.580626659
0	33992	1088	12.580626659
0	33993	1088	12.580626659
0	34035	1090	0.184025738
0	34036	1090	0.184025738
0	34065	1091	1.184025738
0	34066	1091	1.184025738
0	34089	1092	1.607462343
0	34090	1092	1.607462343
0	34141	1093	2.607462343
0	34142	1093	2.607462343
0	34204	1095	0.868417883
0	34205	1095	0.868417883
0	34241	1096	1.868417883
0	34242	1096	1.868417883
0	34402	1104	0.423116481
0	34403	1104	0.423116481
0	34466	1105	1.423116481