file 2575731 1740851230                                         
version 3
run Sched1-0-20250301-19:46:55-4312
attr configname Sched1
attr datetime 20250301-19:46:55
attr datetimef 20250301-194655
attr experiment Sched1
attr inifile omnetpp.ini
attr iterationvars ""
attr iterationvarsd ""
attr iterationvarsf ""
attr measurement ""
attr network RadioSch2
attr processid 4312
attr repetition 0
attr replication #0
attr resultdir results
attr runnumber 0
attr seedset 0
config description "low job arrival rate"
config *.scalar-recording true
config *.vector-recording true
config **.user[*].generator.sendIaTime "0.2 ms"
config *.user[*].generator.networkLoad 0.5
config *.user[*].generator.packetsPerUser 4
config *.user[*].generator.channels 14
config *.user[*].generator.usersCount 7
config *.user[*].generator.MAX_Sim "10 s"
config *.usersCount 7
config network RadioSch2
config sim-time-limit 100h
config cpu-time-limit 300s
config simtime-resolution ns
config record-eventlog true

vector 0 RadioSch2.sink lifetime_user0:vector ETV
attr interpolationmode none
attr recordingmode vector
attr title "User 0 Packet Lifetime"
attr unit s
vector 1 RadioSch2.sink lifetime_user1:vector ETV
attr interpolationmode none
attr recordingmode vector
attr title "User 1 Packet Lifetime"
attr unit s
vector 2 RadioSch2.sink lifetime_user2:vector ETV
attr interpolationmode none
attr recordingmode vector
attr title "User 2 Packet Lifetime"
attr unit s
vector 3 RadioSch2.sink lifetime_user3:vector ETV
attr interpolationmode none
attr recordingmode vector
attr title "User 3 Packet Lifetime"
attr unit s
vector 4 RadioSch2.sink lifetime_user4:vector ETV
attr interpolationmode none
attr recordingmode vector
attr title "User 4 Packet Lifetime"
attr unit s
vector 5 RadioSch2.sink lifetime_user5:vector ETV
attr interpolationmode none
attr recordingmode vector
attr title "User 5 Packet Lifetime"
attr unit s
vector 6 RadioSch2.sink lifetime_user6:vector ETV
attr interpolationmode none
attr recordingmode vector
attr title "User 6 Packet Lifetime"
attr unit s
vector 7 RadioSch2.flc "delay vector" ETV
vector 8 RadioSch2.flc "result nescalat" ETV
vector 9 RadioSch2.flc "res scalat" ETV
vector 10 RadioSch2.flc "weight vector" ETV
0	2231 276249 86 318058 1 9998 10452 0.001860098 12.580626659 22056.272916664 76764.273694522
1	278480 264682 88 317955 1 9996 10008 0.000759992 14.524398286 21166.790361136 80948.927158249
2	543162 262258 90 318103 1 10000 9921 0.000459632 12.695982542 17480.70734007 54547.341009742
3	805420 260813 92 318106 1 10000 9867 2.3612e-05 11.716386424 18496.719887834 61075.074247537
4	1066233 269036 94 318095 1 9999 10184 0.000545751 9.394369867 9030.096408988 17447.2524621
5	1335269 265029 99 318022 1 9997 10032 0.000111716 6.828281669 8665.9790436321 13768.597307861
6	1600298 263229 104 318069 1 9998 9956 0.000276558 7.457380931 8415.440600056 13098.28265156
7	1863527 186006 10 318101 0 10000 10001 730 1552 9074439 8266110571
8	2049533 175405 10 318101 0 10000 10001 23 50 340042 11591362
9	2224938 165544 10 318101 0 10000 10001 -4 9 10394 18304
10	2390482 185247 10 318101 0 10000 10001 1 30 289172 8492326

